/*--------------------------------*- C++ -*----------------------------------*\
  =========                 |
  \\      /  F ield         | OpenFOAM: The Open Source CFD Toolbox
   \\    /   O peration     | Website:  https://openfoam.org
    \\  /    A nd           | Version:  8
     \\/     M anipulation  |
\*---------------------------------------------------------------------------*/
FoamFile
{
    version     2.0;
    format      ascii;
    class       volScalarField;
    location    "1000";
    object      alphat;
}
// * * * * * * * * * * * * * * * * * * * * * * * * * * * * * * * * * * * * * //

dimensions      [1 -1 -1 0 0 0 0];

internalField   nonuniform List<scalar> 
78750
(
3.47036e-13
9.70136e-11
1.93611e-10
3.02114e-10
4.24323e-10
5.60936e-10
7.12149e-10
8.77932e-10
1.05806e-09
1.25197e-09
1.45845e-09
1.67601e-09
1.90293e-09
2.13733e-09
2.37724e-09
2.62068e-09
2.86569e-09
3.11043e-09
3.35311e-09
3.59187e-09
3.82457e-09
4.04836e-09
4.2579e-09
4.44683e-09
4.60365e-09
4.70436e-09
4.70508e-09
4.62454e-09
4.31061e-09
3.89101e-09
3.51715e-09
3.06789e-09
2.34432e-09
1.25838e-09
4.10567e-12
2.05716e-12
4.07361e-09
8.13338e-09
1.25719e-08
1.74689e-08
2.28484e-08
2.87288e-08
3.51211e-08
4.20311e-08
4.94229e-08
5.72441e-08
6.54292e-08
7.39013e-08
8.25745e-08
9.13562e-08
1.0015e-07
1.08858e-07
1.17383e-07
1.25632e-07
1.33505e-07
1.40879e-07
1.4764e-07
1.53621e-07
1.58617e-07
1.62411e-07
1.64502e-07
1.64373e-07
1.62596e-07
1.57969e-07
1.50068e-07
8.14843e-08
4.33139e-08
2.92395e-08
2.68358e-08
1.56074e-11
8.01572e-12
1.58725e-08
3.16779e-08
4.88779e-08
6.76717e-08
8.80043e-08
1.09777e-07
1.32839e-07
1.57054e-07
1.82148e-07
2.07791e-07
2.33624e-07
2.59289e-07
2.8443e-07
3.08704e-07
3.31785e-07
3.5338e-07
3.73243e-07
3.9119e-07
4.07079e-07
4.20634e-07
4.31653e-07
4.39951e-07
4.45218e-07
4.47334e-07
4.46908e-07
4.43767e-07
4.3484e-07
4.16143e-07
2.10634e-07
9.84143e-08
4.83678e-08
3.48464e-08
2.06929e-08
1.68099e-11
2.57392e-11
5.09235e-08
1.01215e-07
1.55225e-07
2.13209e-07
2.74568e-07
3.3848e-07
4.03953e-07
4.69966e-07
5.35655e-07
5.99841e-07
6.6139e-07
7.19311e-07
7.72823e-07
8.21179e-07
8.63746e-07
9.00104e-07
9.30013e-07
9.53356e-07
9.70537e-07
9.81634e-07
9.86365e-07
9.86009e-07
9.83011e-07
9.78545e-07
9.77244e-07
9.822e-07
1.01546e-06
6.84881e-07
4.55029e-07
3.14815e-07
2.15926e-07
1.8895e-07
7.00749e-08
8.05041e-11
7.16003e-11
1.41322e-07
2.78811e-07
4.23415e-07
5.7492e-07
7.31095e-07
8.88963e-07
1.0454e-06
1.19725e-06
1.34167e-06
1.47652e-06
1.59942e-06
1.70838e-06
1.80215e-06
1.87991e-06
1.94098e-06
1.9854e-06
2.01355e-06
2.026e-06
2.02515e-06
2.01519e-06
1.99479e-06
1.96741e-06
1.93696e-06
1.90797e-06
1.88105e-06
1.86999e-06
1.36507e-06
8.30747e-07
5.00673e-07
3.28728e-07
2.49199e-07
2.75794e-07
6.63129e-08
9.72375e-11
1.79075e-10
3.51636e-07
6.84801e-07
1.02409e-06
1.36771e-06
1.71036e-06
2.04541e-06
2.36644e-06
2.66718e-06
2.94213e-06
3.18716e-06
3.39945e-06
3.57678e-06
3.71771e-06
3.82164e-06
3.88949e-06
3.92267e-06
3.92326e-06
3.90222e-06
3.85549e-06
3.79047e-06
3.71502e-06
3.63973e-06
3.57866e-06
3.54485e-06
3.57989e-06
3.33887e-06
2.32831e-06
1.68006e-06
1.21537e-06
8.69484e-07
6.26786e-07
7.27047e-07
1.39306e-07
2.59619e-10
4.08518e-10
7.93819e-07
1.5147e-06
2.21591e-06
2.89563e-06
3.54722e-06
4.16207e-06
4.73193e-06
5.2487e-06
5.70562e-06
6.09754e-06
6.42254e-06
6.6794e-06
6.86787e-06
6.99009e-06
7.04883e-06
7.0479e-06
7.00569e-06
6.9146e-06
6.78746e-06
6.63546e-06
6.47227e-06
6.31406e-06
6.17695e-06
6.06599e-06
6.04225e-06
4.29361e-06
2.91852e-06
1.96171e-06
1.31859e-06
9.18404e-07
7.14586e-07
9.40338e-07
1.38081e-07
2.96112e-10
8.67329e-10
1.65268e-06
3.05628e-06
4.34021e-06
5.52182e-06
6.60778e-06
7.5981e-06
8.48889e-06
9.27473e-06
9.95122e-06
1.05157e-05
1.09686e-05
1.13119e-05
1.15492e-05
1.16862e-05
1.17293e-05
1.16972e-05
1.15918e-05
1.14276e-05
1.12228e-05
1.09991e-05
1.0783e-05
1.0604e-05
1.04821e-05
1.05177e-05
8.8988e-06
6.56821e-06
4.79415e-06
3.49051e-06
2.52338e-06
1.79421e-06
1.39929e-06
1.86989e-06
2.6102e-07
6.35176e-10
1.71002e-09
3.00123e-06
5.61913e-06
7.70357e-06
9.52389e-06
1.11338e-05
1.25607e-05
1.38158e-05
1.49039e-05
1.58275e-05
1.65903e-05
1.71969e-05
1.76526e-05
1.79659e-05
1.81465e-05
1.82054e-05
1.81658e-05
1.80353e-05
1.78324e-05
1.75798e-05
1.73067e-05
1.70476e-05
1.68355e-05
1.66948e-05
1.67531e-05
1.22595e-05
9.00472e-06
6.62136e-06
4.88369e-06
3.55947e-06
2.56978e-06
2.03764e-06
2.46099e-06
2.97042e-07
7.81361e-10
3.09664e-09
4.363e-06
9.47798e-06
1.25096e-05
1.50442e-05
1.72236e-05
1.91174e-05
2.07609e-05
2.21748e-05
2.33737e-05
2.43703e-05
2.51765e-05
2.58032e-05
2.62627e-05
2.65676e-05
2.67328e-05
2.67761e-05
2.67304e-05
2.66137e-05
2.64548e-05
2.62853e-05
2.61341e-05
2.60168e-05
2.6057e-05
2.21967e-05
1.65761e-05
1.24164e-05
9.27553e-06
6.89641e-06
5.02868e-06
3.68944e-06
3.12488e-06
3.59063e-06
4.89523e-07
1.41135e-09
5.16351e-09
5.87252e-06
1.41288e-05
1.87419e-05
2.19938e-05
2.47363e-05
2.7093e-05
2.91305e-05
3.08905e-05
3.24035e-05
3.36933e-05
3.47793e-05
3.56787e-05
3.64065e-05
3.69775e-05
3.74075e-05
3.77146e-05
3.792e-05
3.80507e-05
3.814e-05
3.82248e-05
3.83444e-05
3.85416e-05
3.78765e-05
2.92849e-05
2.25293e-05
1.73541e-05
1.33589e-05
1.0229e-05
7.64149e-06
5.68522e-06
4.85169e-06
4.68165e-06
6.33739e-07
1.93408e-09
7.89866e-09
7.30298e-06
1.80815e-05
2.61961e-05
3.00819e-05
3.33308e-05
3.61167e-05
3.8538e-05
4.06593e-05
4.25276e-05
4.41793e-05
4.56418e-05
4.69376e-05
4.8085e-05
4.91007e-05
5.00011e-05
5.0803e-05
5.15248e-05
5.21877e-05
5.28145e-05
5.34297e-05
5.40594e-05
5.47347e-05
4.70834e-05
3.65142e-05
2.86183e-05
2.23752e-05
1.73704e-05
1.33072e-05
1.00821e-05
7.82086e-06
7.24221e-06
6.54491e-06
1.01074e-06
3.26087e-09
1.12334e-08
8.60798e-06
2.19997e-05
3.43603e-05
3.87556e-05
4.2423e-05
4.55762e-05
4.83417e-05
5.08062e-05
5.3033e-05
5.507e-05
5.69541e-05
5.87132e-05
6.03698e-05
6.19442e-05
6.34564e-05
6.49275e-05
6.6382e-05
6.78489e-05
6.93609e-05
7.09559e-05
7.26882e-05
6.74826e-05
5.5843e-05
4.58797e-05
3.8129e-05
3.14457e-05
2.5348e-05
1.97609e-05
1.49204e-05
1.14836e-05
1.06237e-05
8.52116e-06
1.35746e-06
4.54485e-09
1.4971e-08
9.7516e-06
2.57048e-05
4.2683e-05
4.74496e-05
5.14227e-05
5.48432e-05
5.78607e-05
6.05802e-05
6.30805e-05
6.54198e-05
6.76409e-05
6.97752e-05
7.18458e-05
7.38716e-05
7.58685e-05
7.78518e-05
7.98366e-05
8.1839e-05
8.38782e-05
8.31237e-05
7.96691e-05
7.08528e-05
5.92673e-05
4.9248e-05
4.01072e-05
3.29854e-05
2.71779e-05
2.4244e-05
2.02076e-05
1.68012e-05
1.64637e-05
1.23808e-05
2.05713e-06
7.10991e-09
1.88512e-08
1.07776e-05
2.90101e-05
4.9869e-05
5.57528e-05
5.99059e-05
6.34591e-05
6.65795e-05
6.93866e-05
7.19695e-05
7.43916e-05
7.66958e-05
7.89089e-05
8.10457e-05
8.31118e-05
8.51066e-05
8.70229e-05
8.8848e-05
8.98028e-05
8.57901e-05
8.02844e-05
7.50603e-05
6.55274e-05
5.24333e-05
4.27057e-05
3.57443e-05
3.11687e-05
2.72576e-05
2.38056e-05
2.2959e-05
2.16923e-05
2.35383e-05
1.70507e-05
3.13336e-06
1.11439e-08
2.26417e-08
1.16603e-05
3.15131e-05
5.42342e-05
6.3548e-05
6.77422e-05
7.12744e-05
7.4324e-05
7.70223e-05
7.94669e-05
8.17259e-05
8.38422e-05
8.58375e-05
8.77174e-05
8.94751e-05
9.10946e-05
9.25539e-05
8.9767e-05
8.51975e-05
7.9078e-05
7.14788e-05
6.36254e-05
5.71943e-05
4.81678e-05
3.84016e-05
3.24571e-05
2.9059e-05
2.6099e-05
2.35492e-05
2.35383e-05
2.61488e-05
3.10432e-05
2.1384e-05
4.42217e-06
1.618e-08
2.62471e-08
1.23596e-05
3.31468e-05
5.6947e-05
7.0754e-05
7.48687e-05
7.82415e-05
8.10635e-05
8.34773e-05
8.55901e-05
8.74768e-05
8.9184e-05
9.07344e-05
9.21321e-05
9.33727e-05
9.28798e-05
8.97353e-05
8.52251e-05
7.91684e-05
7.16334e-05
6.33464e-05
5.54581e-05
5.00883e-05
4.28497e-05
3.43213e-05
2.89969e-05
2.52259e-05
2.31377e-05
2.29114e-05
2.56008e-05
3.01866e-05
3.7178e-05
2.431e-05
5.60424e-06
2.11259e-08
2.94771e-08
1.27981e-05
3.37601e-05
5.76088e-05
7.28953e-05
8.11973e-05
8.43051e-05
8.67904e-05
8.88055e-05
9.04684e-05
9.1865e-05
9.30515e-05
9.40544e-05
9.48243e-05
9.27038e-05
8.96232e-05
8.54777e-05
7.99744e-05
7.29919e-05
6.44873e-05
5.48588e-05
4.72513e-05
4.26993e-05
3.72616e-05
2.9904e-05
2.58491e-05
2.34062e-05
2.23653e-05
2.30291e-05
2.71741e-05
3.40183e-05
4.17616e-05
2.62208e-05
6.57919e-06
2.55386e-08
3.22845e-08
1.29952e-05
3.34945e-05
5.65199e-05
7.15876e-05
7.98847e-05
8.53063e-05
8.92136e-05
9.19607e-05
9.36458e-05
9.43321e-05
9.41163e-05
9.30727e-05
9.13307e-05
8.87919e-05
8.53453e-05
8.11484e-05
7.55908e-05
6.81068e-05
5.86478e-05
4.9909e-05
4.29334e-05
3.97924e-05
3.51585e-05
2.96123e-05
2.59331e-05
2.24702e-05
2.16154e-05
2.28519e-05
2.78804e-05
3.72687e-05
4.49798e-05
2.76182e-05
7.35999e-06
2.93759e-08
3.4772e-08
1.30464e-05
3.27149e-05
5.43611e-05
6.87896e-05
7.66869e-05
8.16413e-05
8.50704e-05
8.73985e-05
8.87934e-05
8.93407e-05
8.90885e-05
8.81035e-05
8.65172e-05
8.44589e-05
8.16143e-05
7.74747e-05
7.11668e-05
6.39967e-05
5.62036e-05
4.77361e-05
3.9926e-05
3.27157e-05
2.927e-05
2.55059e-05
2.21653e-05
2.08237e-05
2.08315e-05
2.28454e-05
2.91569e-05
4.02416e-05
4.74436e-05
2.88219e-05
8.05266e-06
3.30343e-08
3.69637e-08
1.30069e-05
3.17711e-05
5.19729e-05
6.56854e-05
7.3224e-05
7.78212e-05
8.0892e-05
8.29662e-05
8.423e-05
8.47195e-05
8.45528e-05
8.36968e-05
8.11155e-05
7.95018e-05
7.67138e-05
7.29865e-05
6.80453e-05
6.19119e-05
5.3694e-05
4.46954e-05
3.58307e-05
2.9926e-05
2.70786e-05
2.37133e-05
2.06032e-05
1.95354e-05
1.99654e-05
2.27538e-05
2.99274e-05
4.22727e-05
4.8815e-05
2.94659e-05
8.53591e-06
3.59203e-08
3.88232e-08
1.28859e-05
3.07826e-05
4.96649e-05
6.26584e-05
6.98093e-05
7.39312e-05
7.6157e-05
7.82674e-05
8.02216e-05
8.08008e-05
8.07588e-05
8.02854e-05
7.93351e-05
7.76944e-05
7.43905e-05
7.05727e-05
6.5375e-05
5.84949e-05
5.02097e-05
4.15441e-05
3.43881e-05
2.91152e-05
2.67362e-05
2.36406e-05
2.02525e-05
1.85823e-05
1.90964e-05
2.26232e-05
3.05589e-05
4.41504e-05
5.02364e-05
3.02348e-05
8.99864e-06
3.88632e-08
4.04141e-08
1.27259e-05
2.98247e-05
4.74766e-05
5.9682e-05
6.63458e-05
6.99232e-05
7.30965e-05
7.6154e-05
7.77855e-05
7.83774e-05
7.84205e-05
7.79685e-05
7.7085e-05
7.56592e-05
7.3334e-05
6.90077e-05
6.36648e-05
5.68587e-05
4.87908e-05
4.06739e-05
3.42374e-05
2.87424e-05
2.47355e-05
2.15004e-05
1.82771e-05
1.75956e-05
1.87048e-05
2.24478e-05
3.10243e-05
4.50784e-05
5.08663e-05
3.0645e-05
9.37846e-06
4.14811e-08
4.1768e-08
1.25482e-05
2.88985e-05
4.53512e-05
5.65855e-05
6.24243e-05
6.67378e-05
7.0229e-05
7.34176e-05
7.50981e-05
7.61248e-05
7.64665e-05
7.54713e-05
7.4374e-05
7.28666e-05
7.06313e-05
6.78116e-05
6.31731e-05
5.6757e-05
4.8771e-05
3.96514e-05
3.22866e-05
2.69231e-05
2.41643e-05
2.06504e-05
1.89458e-05
1.68847e-05
1.79354e-05
2.20856e-05
3.12445e-05
4.55119e-05
5.08522e-05
3.06135e-05
9.60925e-06
4.34439e-08
4.29716e-08
1.23732e-05
2.80463e-05
4.33972e-05
5.38919e-05
6.04393e-05
6.50895e-05
6.86191e-05
7.12781e-05
7.31024e-05
7.42053e-05
7.46501e-05
7.45002e-05
7.37627e-05
7.16155e-05
6.92522e-05
6.63999e-05
6.18616e-05
5.56348e-05
4.8025e-05
4.02005e-05
3.33204e-05
2.8122e-05
2.59916e-05
2.30482e-05
2.02692e-05
1.95268e-05
2.07674e-05
2.47865e-05
3.33895e-05
4.6248e-05
5.1298e-05
3.07743e-05
9.84681e-06
4.54532e-08
4.40308e-08
1.22081e-05
2.72827e-05
4.17084e-05
5.1754e-05
5.84158e-05
6.32638e-05
6.69042e-05
6.96056e-05
7.14821e-05
7.26036e-05
7.30342e-05
7.2937e-05
7.21865e-05
7.07736e-05
6.84774e-05
6.4423e-05
5.95628e-05
5.31117e-05
4.50101e-05
3.69201e-05
3.01656e-05
2.55228e-05
2.32447e-05
2.0462e-05
1.80135e-05
1.77316e-05
1.9279e-05
2.36312e-05
3.27898e-05
4.6228e-05
5.0683e-05
3.04805e-05
1.0009e-05
4.70036e-08
4.4591e-08
1.19601e-05
2.62592e-05
3.96272e-05
4.96601e-05
5.65513e-05
6.16199e-05
6.5417e-05
6.81658e-05
6.99973e-05
7.11467e-05
7.16429e-05
7.14679e-05
6.99718e-05
6.82513e-05
6.59108e-05
6.27095e-05
5.8236e-05
5.21598e-05
4.49713e-05
3.81011e-05
3.17581e-05
2.7017e-05
2.39957e-05
1.88611e-05
1.60893e-05
1.60603e-05
1.77758e-05
2.24897e-05
3.22404e-05
4.57742e-05
4.93443e-05
2.9929e-05
1.00536e-05
4.7861e-08
4.53356e-08
1.1816e-05
2.55939e-05
3.82276e-05
4.81084e-05
5.51731e-05
6.02873e-05
6.40471e-05
6.63228e-05
6.79569e-05
6.89436e-05
6.9282e-05
6.90299e-05
6.80902e-05
6.64124e-05
6.39808e-05
6.0774e-05
5.63961e-05
5.06785e-05
4.39752e-05
3.58476e-05
2.96787e-05
2.5185e-05
2.27469e-05
1.97056e-05
1.67225e-05
1.55157e-05
1.68561e-05
2.16153e-05
3.17198e-05
4.56032e-05
4.99255e-05
3.01987e-05
1.02759e-05
4.9577e-08
4.62245e-08
1.16964e-05
2.49193e-05
3.61741e-05
4.58308e-05
5.30546e-05
5.83066e-05
6.22803e-05
6.50715e-05
6.68522e-05
6.78024e-05
6.80828e-05
6.81499e-05
6.7265e-05
6.5636e-05
6.27686e-05
5.93465e-05
5.49182e-05
4.97123e-05
4.33039e-05
3.67966e-05
3.08519e-05
2.57885e-05
2.12051e-05
1.78327e-05
1.52472e-05
1.47432e-05
1.63829e-05
2.0872e-05
3.05366e-05
4.45668e-05
4.91355e-05
2.93322e-05
1.01605e-05
4.97266e-08
4.7449e-08
1.1645e-05
2.46319e-05
3.55802e-05
4.5073e-05
5.22761e-05
5.75407e-05
6.14135e-05
6.4576e-05
6.63448e-05
6.72508e-05
6.74646e-05
6.71265e-05
6.61433e-05
6.45861e-05
6.22744e-05
5.86987e-05
5.30377e-05
4.676e-05
4.01355e-05
3.39407e-05
2.97838e-05
2.60755e-05
2.44592e-05
2.21727e-05
1.88238e-05
1.71086e-05
1.62536e-05
2.00495e-05
2.94902e-05
4.43267e-05
4.90315e-05
2.90437e-05
1.00383e-05
5.01283e-08
4.77952e-08
1.13983e-05
2.40208e-05
3.48152e-05
4.43907e-05
5.1587e-05
5.67525e-05
6.04811e-05
6.30069e-05
6.46494e-05
6.55841e-05
6.58912e-05
6.59664e-05
6.50871e-05
6.35213e-05
6.11983e-05
5.79255e-05
5.29753e-05
4.59693e-05
3.90221e-05
3.30171e-05
2.89714e-05
2.56746e-05
2.47553e-05
2.27853e-05
1.98524e-05
1.87798e-05
1.9165e-05
2.2399e-05
3.10406e-05
4.4961e-05
4.91518e-05
2.90705e-05
1.00061e-05
5.07884e-08
4.77446e-08
1.10793e-05
2.33929e-05
3.40384e-05
4.36413e-05
5.09871e-05
5.61618e-05
5.97678e-05
6.22194e-05
6.38087e-05
6.46736e-05
6.49468e-05
6.46514e-05
6.37454e-05
6.21562e-05
5.98117e-05
5.68142e-05
5.21167e-05
4.58439e-05
3.79823e-05
3.1555e-05
2.60907e-05
2.20908e-05
2.15052e-05
1.95354e-05
1.65941e-05
1.72763e-05
1.80753e-05
2.05365e-05
2.92688e-05
4.37086e-05
4.85869e-05
2.7366e-05
9.83415e-06
5.1098e-08
4.70988e-08
1.07141e-05
2.26719e-05
3.35016e-05
4.34033e-05
5.0573e-05
5.56891e-05
5.9345e-05
6.17805e-05
6.32653e-05
6.40024e-05
6.4275e-05
6.40739e-05
6.31873e-05
6.14061e-05
5.88866e-05
5.54262e-05
5.01396e-05
4.33602e-05
3.6568e-05
3.02551e-05
2.49433e-05
2.11509e-05
1.97706e-05
1.74688e-05
1.50512e-05
1.48297e-05
1.60803e-05
2.04343e-05
3.05696e-05
4.58017e-05
4.79555e-05
2.68815e-05
9.76044e-06
5.11652e-08
4.7708e-08
1.06268e-05
2.24155e-05
3.35313e-05
4.31165e-05
5.01842e-05
5.51437e-05
5.86643e-05
6.11235e-05
6.28208e-05
6.37819e-05
6.41171e-05
6.3843e-05
6.32088e-05
6.16675e-05
5.89995e-05
5.49372e-05
4.94394e-05
4.2985e-05
3.57821e-05
2.89129e-05
2.35302e-05
2.01196e-05
1.81209e-05
1.6344e-05
1.48406e-05
1.49778e-05
1.68292e-05
2.21351e-05
3.34298e-05
4.74326e-05
4.69822e-05
2.65273e-05
9.70027e-06
5.13136e-08
4.83402e-08
1.04981e-05
2.1245e-05
3.30816e-05
4.28656e-05
4.99575e-05
5.50252e-05
5.85867e-05
6.09457e-05
6.23749e-05
6.32201e-05
6.35857e-05
6.34279e-05
6.29588e-05
6.16084e-05
5.92911e-05
5.51988e-05
4.86742e-05
4.16928e-05
3.47128e-05
2.83197e-05
2.33707e-05
2.17973e-05
2.00919e-05
1.63999e-05
1.49498e-05
1.55351e-05
1.8077e-05
2.45689e-05
3.65357e-05
4.75405e-05
4.50331e-05
2.58428e-05
9.79895e-06
5.1736e-08
4.86075e-08
1.05541e-05
2.16002e-05
3.31545e-05
4.27648e-05
4.97434e-05
5.47594e-05
5.88161e-05
6.13296e-05
6.26309e-05
6.26232e-05
6.26101e-05
6.2196e-05
6.05897e-05
5.8486e-05
5.56311e-05
5.18734e-05
4.69333e-05
4.0662e-05
3.37704e-05
2.75423e-05
2.24933e-05
1.93652e-05
1.72375e-05
1.53272e-05
1.48004e-05
1.61252e-05
1.97429e-05
2.73051e-05
3.97852e-05
4.89129e-05
4.42422e-05
2.45038e-05
9.77972e-06
5.13449e-08
4.94975e-08
1.08026e-05
2.30641e-05
3.34808e-05
4.27382e-05
4.96492e-05
5.46531e-05
5.7983e-05
6.0666e-05
6.15434e-05
6.21112e-05
6.18659e-05
6.137e-05
5.93173e-05
5.73182e-05
5.43857e-05
5.07055e-05
4.5926e-05
4.03275e-05
3.41276e-05
2.98251e-05
2.53337e-05
2.12443e-05
1.66959e-05
1.52771e-05
1.70487e-05
1.74533e-05
2.21529e-05
2.90151e-05
4.10455e-05
4.90152e-05
4.32818e-05
2.41185e-05
9.85711e-06
5.14225e-08
4.87387e-08
1.06632e-05
2.25008e-05
3.28494e-05
4.24072e-05
4.95625e-05
5.44954e-05
5.78813e-05
6.00164e-05
6.11067e-05
6.13215e-05
6.06828e-05
5.98937e-05
5.74342e-05
5.4956e-05
5.18889e-05
4.819e-05
4.4048e-05
4.04307e-05
3.5733e-05
3.01258e-05
2.41299e-05
2.23876e-05
2.0237e-05
1.87602e-05
1.84309e-05
1.95178e-05
2.31558e-05
3.02016e-05
4.12461e-05
4.82923e-05
4.31141e-05
2.42738e-05
9.97565e-06
5.15096e-08
4.89038e-08
1.06578e-05
2.22776e-05
3.26313e-05
4.20867e-05
4.93561e-05
5.43949e-05
5.75146e-05
5.94116e-05
6.04229e-05
6.04912e-05
5.96696e-05
5.78985e-05
5.51921e-05
5.21308e-05
4.89045e-05
4.50446e-05
4.09354e-05
3.74185e-05
3.44004e-05
3.09066e-05
2.69835e-05
2.31316e-05
1.98327e-05
1.73265e-05
1.59475e-05
1.69986e-05
2.06982e-05
2.83601e-05
4.03366e-05
4.85002e-05
4.36842e-05
2.51099e-05
1.00983e-05
5.2028e-08
4.89328e-08
1.04986e-05
2.06655e-05
3.26114e-05
4.27041e-05
5.02561e-05
5.52941e-05
5.81948e-05
5.90767e-05
5.93968e-05
5.87969e-05
5.74943e-05
5.56038e-05
5.30718e-05
4.98834e-05
4.64688e-05
4.29282e-05
3.93722e-05
3.5888e-05
3.2781e-05
2.9898e-05
2.65781e-05
2.28609e-05
1.96024e-05
1.69166e-05
1.54047e-05
1.59794e-05
1.87573e-05
2.51134e-05
3.6455e-05
4.71414e-05
4.47526e-05
2.54782e-05
1.01671e-05
5.26122e-08
4.90729e-08
1.03983e-05
2.03901e-05
3.11484e-05
4.13047e-05
4.90699e-05
5.40677e-05
5.69107e-05
5.83136e-05
5.84091e-05
5.74942e-05
5.53916e-05
5.31034e-05
5.09051e-05
4.80904e-05
4.44963e-05
4.09756e-05
3.77017e-05
3.47135e-05
3.18805e-05
2.94977e-05
2.80949e-05
2.91035e-05
2.71054e-05
2.26301e-05
1.90995e-05
1.63592e-05
1.75957e-05
2.36687e-05
3.36965e-05
4.57463e-05
4.69405e-05
2.74271e-05
1.02044e-05
5.35191e-08
4.8938e-08
1.02482e-05
2.07821e-05
3.18245e-05
4.22284e-05
4.98488e-05
5.4008e-05
5.65484e-05
5.76696e-05
5.79857e-05
5.67571e-05
5.41704e-05
5.16149e-05
4.89006e-05
4.68014e-05
4.29323e-05
3.94613e-05
3.63469e-05
3.37109e-05
3.08616e-05
2.86733e-05
2.75343e-05
2.85057e-05
2.67665e-05
2.24585e-05
2.1286e-05
1.97386e-05
1.95724e-05
2.1233e-05
2.91454e-05
4.21724e-05
4.78986e-05
2.89024e-05
1.01655e-05
5.42817e-08
4.96233e-08
1.01417e-05
2.04465e-05
3.0774e-05
4.12605e-05
4.90685e-05
5.3908e-05
5.65059e-05
5.73006e-05
5.67181e-05
5.50502e-05
5.26398e-05
4.98058e-05
4.71875e-05
4.44375e-05
4.15806e-05
3.85662e-05
3.54586e-05
3.2493e-05
3.01108e-05
2.84792e-05
2.74141e-05
2.88824e-05
2.79648e-05
2.40921e-05
2.16334e-05
1.93766e-05
1.8761e-05
2.04878e-05
2.674e-05
3.91646e-05
4.87647e-05
2.77343e-05
9.74431e-06
5.355e-08
5.00816e-08
1.00122e-05
2.03873e-05
3.09787e-05
4.15374e-05
4.92107e-05
5.39046e-05
5.67232e-05
5.74969e-05
5.67587e-05
5.51167e-05
5.28767e-05
4.94917e-05
4.64931e-05
4.3768e-05
4.11404e-05
3.84234e-05
3.54509e-05
3.23314e-05
2.95658e-05
2.78152e-05
2.88034e-05
2.90201e-05
2.54596e-05
2.24355e-05
2.04108e-05
1.89004e-05
1.83697e-05
2.04567e-05
2.96004e-05
4.5325e-05
4.87775e-05
2.62636e-05
9.47601e-06
5.24405e-08
5.11371e-08
1.00733e-05
2.07972e-05
3.17162e-05
4.21868e-05
4.9664e-05
5.43846e-05
5.63839e-05
5.64588e-05
5.49891e-05
5.35153e-05
4.99614e-05
4.68934e-05
4.436e-05
4.21392e-05
3.99761e-05
3.76208e-05
3.48774e-05
3.18133e-05
2.89613e-05
2.68704e-05
2.63631e-05
2.48032e-05
2.23603e-05
2.07938e-05
1.94741e-05
1.88826e-05
2.01984e-05
2.59148e-05
3.69938e-05
4.84799e-05
4.62029e-05
2.49015e-05
9.20665e-06
5.15619e-08
5.10914e-08
9.91699e-06
1.95447e-05
3.14325e-05
4.26263e-05
5.04201e-05
5.44258e-05
5.54637e-05
5.51633e-05
5.34582e-05
5.10859e-05
4.72603e-05
4.40789e-05
4.15309e-05
3.95887e-05
3.79309e-05
3.61217e-05
3.37695e-05
3.08659e-05
2.78867e-05
2.53196e-05
2.34889e-05
2.19178e-05
2.0649e-05
1.99163e-05
1.96776e-05
2.05229e-05
2.36811e-05
3.15694e-05
4.21705e-05
4.98229e-05
4.36226e-05
2.39316e-05
9.44613e-06
5.14675e-08
5.25077e-08
1.02181e-05
2.13089e-05
3.25165e-05
4.36656e-05
5.07657e-05
5.42299e-05
5.54304e-05
5.49504e-05
5.22926e-05
4.79631e-05
4.4078e-05
4.07951e-05
3.83951e-05
3.69513e-05
3.6061e-05
3.50562e-05
3.33356e-05
3.0786e-05
2.79546e-05
2.53424e-05
2.2954e-05
2.11545e-05
2.02022e-05
1.99583e-05
2.05341e-05
2.24721e-05
2.67324e-05
3.44471e-05
4.44736e-05
4.94341e-05
4.15767e-05
2.38369e-05
9.69396e-06
5.20423e-08
5.22771e-08
1.01311e-05
2.08162e-05
3.29516e-05
4.37173e-05
5.02964e-05
5.45007e-05
5.53684e-05
5.37397e-05
5.03844e-05
4.52384e-05
4.09892e-05
3.77812e-05
3.56994e-05
3.47686e-05
3.45658e-05
3.43207e-05
3.32593e-05
3.10685e-05
2.81887e-05
2.52331e-05
2.26938e-05
2.08423e-05
1.97983e-05
1.96948e-05
2.07602e-05
2.34177e-05
2.855e-05
3.66631e-05
4.53088e-05
4.88317e-05
4.15495e-05
2.3609e-05
9.77774e-06
5.23483e-08
5.2704e-08
1.00935e-05
1.97002e-05
3.1185e-05
4.23695e-05
4.98907e-05
5.33887e-05
5.37648e-05
5.16156e-05
4.79431e-05
4.27825e-05
3.84868e-05
3.52737e-05
3.34529e-05
3.29277e-05
3.32573e-05
3.37324e-05
3.35155e-05
3.20285e-05
2.94141e-05
2.64665e-05
2.35113e-05
2.11149e-05
1.97528e-05
1.94984e-05
2.06493e-05
2.35285e-05
2.88382e-05
3.69323e-05
4.53786e-05
4.81369e-05
3.9584e-05
2.23775e-05
9.72827e-06
5.27813e-08
5.35108e-08
1.02485e-05
2.0772e-05
3.18243e-05
4.29645e-05
5.03365e-05
5.35598e-05
5.35027e-05
5.10682e-05
4.58556e-05
4.07321e-05
3.66173e-05
3.37979e-05
3.20169e-05
3.16324e-05
3.23138e-05
3.32997e-05
3.3746e-05
3.29071e-05
3.10947e-05
2.86859e-05
2.51463e-05
2.19458e-05
2.01855e-05
1.96514e-05
2.04823e-05
2.29977e-05
2.7961e-05
3.57631e-05
4.42014e-05
4.75286e-05
3.91376e-05
2.17698e-05
9.53383e-06
5.33903e-08
5.42803e-08
1.02765e-05
2.08645e-05
3.25864e-05
4.36739e-05
5.09152e-05
5.39802e-05
5.35912e-05
5.04262e-05
4.53815e-05
3.90672e-05
3.46546e-05
3.22283e-05
3.05153e-05
3.04001e-05
3.14715e-05
3.29808e-05
3.40818e-05
3.41553e-05
3.34727e-05
3.04778e-05
2.6299e-05
2.31144e-05
2.09416e-05
1.99677e-05
2.03345e-05
2.24092e-05
2.69404e-05
3.45248e-05
4.33562e-05
4.72282e-05
3.92258e-05
2.22927e-05
9.38366e-06
5.40021e-08
5.4423e-08
1.01746e-05
2.05451e-05
3.20079e-05
4.33148e-05
5.04199e-05
5.32334e-05
5.23961e-05
4.81872e-05
4.27781e-05
3.73132e-05
3.30887e-05
3.14035e-05
2.93158e-05
2.93598e-05
3.07012e-05
3.26095e-05
3.41444e-05
3.45741e-05
3.42416e-05
3.15127e-05
2.73603e-05
2.3983e-05
2.14818e-05
2.01512e-05
2.02083e-05
2.20758e-05
2.65683e-05
3.44009e-05
4.35452e-05
4.72733e-05
3.8655e-05
2.19218e-05
9.20126e-06
5.40324e-08
5.49395e-08
1.01311e-05
2.00773e-05
3.07385e-05
4.19167e-05
5.00169e-05
5.29675e-05
5.15455e-05
4.76692e-05
4.20034e-05
3.61352e-05
3.14314e-05
2.86836e-05
2.77407e-05
2.82202e-05
2.98094e-05
3.19487e-05
3.37678e-05
3.49555e-05
3.43909e-05
3.13247e-05
2.75911e-05
2.42842e-05
2.17269e-05
2.02941e-05
2.03265e-05
2.2305e-05
2.70722e-05
3.52472e-05
4.41639e-05
4.69095e-05
3.76034e-05
2.15483e-05
9.06979e-06
5.41941e-08
5.52498e-08
1.00467e-05
1.92794e-05
3.08675e-05
4.21482e-05
4.96788e-05
5.26242e-05
5.15939e-05
4.72864e-05
4.12046e-05
3.49437e-05
3.01106e-05
2.75412e-05
2.65461e-05
2.69759e-05
2.86551e-05
3.10741e-05
3.32464e-05
3.42725e-05
3.34148e-05
3.08901e-05
2.76067e-05
2.43846e-05
2.19236e-05
2.06074e-05
2.07896e-05
2.30483e-05
2.82748e-05
3.66171e-05
4.49064e-05
4.72341e-05
3.75891e-05
2.11079e-05
9.04803e-06
5.43034e-08
5.58615e-08
1.01313e-05
2.0229e-05
3.16967e-05
4.21191e-05
4.93568e-05
5.26631e-05
5.15158e-05
4.65543e-05
4.0747e-05
3.46989e-05
3.03032e-05
2.75947e-05
2.53007e-05
2.55481e-05
2.72564e-05
2.9828e-05
3.24413e-05
3.36286e-05
3.29242e-05
3.0741e-05
2.7557e-05
2.44548e-05
2.21653e-05
2.1087e-05
2.15779e-05
2.42122e-05
2.97322e-05
3.79018e-05
4.51841e-05
4.60389e-05
3.61035e-05
2.09709e-05
9.03473e-06
5.43539e-08
5.53632e-08
9.88355e-06
1.84062e-05
2.96994e-05
4.11083e-05
4.84482e-05
5.11413e-05
4.99164e-05
4.57731e-05
3.82646e-05
3.161e-05
2.66923e-05
2.40833e-05
2.34777e-05
2.40925e-05
2.57694e-05
2.84709e-05
3.10925e-05
3.27764e-05
3.30902e-05
3.12367e-05
2.81036e-05
2.49645e-05
2.26735e-05
2.16823e-05
2.23657e-05
2.52733e-05
3.09997e-05
3.89514e-05
4.54904e-05
4.57446e-05
3.58813e-05
2.08389e-05
9.02282e-06
5.44387e-08
5.56228e-08
9.8868e-06
1.85993e-05
2.98671e-05
4.14729e-05
4.88425e-05
5.14229e-05
5.0024e-05
4.49228e-05
3.81161e-05
3.15867e-05
2.67307e-05
2.37865e-05
2.25682e-05
2.26771e-05
2.41397e-05
2.69104e-05
2.99765e-05
3.2216e-05
3.3039e-05
3.18928e-05
2.92755e-05
2.62452e-05
2.38186e-05
2.26383e-05
2.31404e-05
2.58341e-05
3.1228e-05
3.8759e-05
4.51264e-05
4.53464e-05
3.5279e-05
2.06008e-05
9.0578e-06
5.49618e-08
5.58e-08
9.92568e-06
1.89922e-05
3.02196e-05
4.16692e-05
4.89079e-05
5.15188e-05
5.02032e-05
4.54285e-05
3.89311e-05
3.22197e-05
2.702e-05
2.40615e-05
2.28921e-05
2.30059e-05
2.37454e-05
2.58613e-05
2.87655e-05
3.1551e-05
3.31665e-05
3.28487e-05
3.08755e-05
2.8096e-05
2.55428e-05
2.40391e-05
2.41394e-05
2.63615e-05
3.12275e-05
3.84233e-05
4.49726e-05
4.55848e-05
3.52569e-05
1.95873e-05
8.86313e-06
5.48317e-08
5.58909e-08
1.00157e-05
2.02008e-05
3.19439e-05
4.29241e-05
4.97157e-05
5.22591e-05
5.1196e-05
4.64471e-05
3.99378e-05
3.2341e-05
2.60108e-05
2.29644e-05
2.18262e-05
2.20237e-05
2.31659e-05
2.47272e-05
2.72979e-05
3.04318e-05
3.25895e-05
3.30197e-05
3.17998e-05
2.9517e-05
2.71074e-05
2.54491e-05
2.52511e-05
2.71877e-05
3.18895e-05
3.91478e-05
4.6056e-05
4.69812e-05
3.60953e-05
1.93335e-05
8.76828e-06
5.48929e-08
5.59883e-08
1.00376e-05
2.01814e-05
3.06103e-05
4.13071e-05
4.87307e-05
5.17094e-05
5.13922e-05
4.82648e-05
4.20757e-05
3.44749e-05
2.66709e-05
2.21599e-05
2.06399e-05
2.06733e-05
2.17246e-05
2.2891e-05
2.50477e-05
2.82698e-05
3.10295e-05
3.22599e-05
3.18163e-05
3.01868e-05
2.81855e-05
2.67239e-05
2.6615e-05
2.86309e-05
3.33957e-05
4.04401e-05
4.65602e-05
4.6269e-05
3.48239e-05
1.8738e-05
8.66197e-06
5.44647e-08
5.53912e-08
9.97999e-06
2.01227e-05
3.11012e-05
4.15361e-05
4.81555e-05
5.15633e-05
5.08394e-05
4.79291e-05
4.26721e-05
3.59603e-05
2.80546e-05
2.2704e-05
1.96369e-05
1.93903e-05
2.06265e-05
2.20122e-05
2.31418e-05
2.57434e-05
2.86708e-05
3.05607e-05
3.09404e-05
3.01164e-05
2.88745e-05
2.80198e-05
2.84207e-05
3.08327e-05
3.569e-05
4.21276e-05
4.68396e-05
4.58126e-05
3.54059e-05
1.96559e-05
8.71984e-06
5.47388e-08
5.52942e-08
1.00487e-05
2.06477e-05
3.22533e-05
4.26671e-05
4.92053e-05
5.20347e-05
5.1522e-05
4.91313e-05
4.45146e-05
3.87053e-05
3.18643e-05
2.61486e-05
2.17805e-05
1.86211e-05
1.93124e-05
2.05654e-05
2.17064e-05
2.35083e-05
2.60644e-05
2.8429e-05
2.96213e-05
2.97226e-05
2.93676e-05
2.94356e-05
3.06402e-05
3.36326e-05
3.85479e-05
4.42736e-05
4.77587e-05
4.57974e-05
3.50584e-05
1.9982e-05
8.78171e-06
5.43064e-08
5.50021e-08
1.00623e-05
2.0371e-05
3.20577e-05
4.26555e-05
4.91492e-05
5.2129e-05
5.21938e-05
5.01764e-05
4.5749e-05
3.91895e-05
3.19183e-05
2.69041e-05
2.33697e-05
2.12244e-05
2.09014e-05
2.14333e-05
2.19704e-05
2.32218e-05
2.38354e-05
2.61525e-05
2.82056e-05
2.93637e-05
2.9976e-05
3.08101e-05
3.27026e-05
3.61103e-05
4.0874e-05
4.58423e-05
4.84091e-05
4.55487e-05
3.47726e-05
1.96594e-05
8.83516e-06
5.43087e-08
5.46295e-08
1.00072e-05
1.94435e-05
3.06907e-05
4.13873e-05
4.88709e-05
5.16283e-05
5.22608e-05
5.04936e-05
4.64642e-05
4.05532e-05
3.35962e-05
2.66731e-05
2.13491e-05
1.80367e-05
1.72375e-05
1.78633e-05
1.86055e-05
2.01739e-05
2.19882e-05
2.38903e-05
2.63984e-05
2.86145e-05
3.0377e-05
3.2179e-05
3.46289e-05
3.81611e-05
4.25358e-05
4.6598e-05
4.83205e-05
4.51599e-05
3.43002e-05
1.96026e-05
8.86294e-06
5.44577e-08
5.45808e-08
1.00989e-05
2.03995e-05
3.12522e-05
4.1988e-05
4.88816e-05
5.21698e-05
5.27263e-05
5.08976e-05
4.69251e-05
4.1227e-05
3.50477e-05
2.92878e-05
2.41626e-05
2.00092e-05
1.77645e-05
1.83091e-05
1.6626e-05
1.71466e-05
1.88494e-05
2.11087e-05
2.38406e-05
2.70117e-05
2.99438e-05
3.27134e-05
3.58038e-05
3.95424e-05
4.3712e-05
4.73471e-05
4.84469e-05
4.47313e-05
3.36922e-05
2.00596e-05
8.95267e-06
5.49034e-08
5.4239e-08
9.99448e-06
1.95117e-05
3.13074e-05
4.22083e-05
4.91696e-05
5.25376e-05
5.29875e-05
5.11167e-05
4.71489e-05
4.21571e-05
3.64933e-05
3.10771e-05
2.65303e-05
2.27831e-05
1.98561e-05
1.7583e-05
1.59904e-05
1.58726e-05
1.68701e-05
1.88615e-05
2.15344e-05
2.48863e-05
2.86138e-05
3.23375e-05
3.61237e-05
4.01371e-05
4.41454e-05
4.72539e-05
4.79314e-05
4.38503e-05
3.27226e-05
1.97767e-05
8.9262e-06
5.5016e-08
5.42088e-08
1.00438e-05
2.05092e-05
3.25132e-05
4.3212e-05
4.95092e-05
5.26217e-05
5.30481e-05
5.13712e-05
4.75431e-05
4.27927e-05
3.74861e-05
3.23041e-05
2.72988e-05
2.34384e-05
2.07805e-05
1.91007e-05
1.82598e-05
1.73622e-05
1.65652e-05
1.76377e-05
1.99853e-05
2.31292e-05
2.7136e-05
3.14935e-05
3.58999e-05
4.02819e-05
4.43237e-05
4.71983e-05
4.75065e-05
4.31107e-05
3.18347e-05
1.85725e-05
8.74143e-06
5.48254e-08
5.38049e-08
9.88444e-06
1.94872e-05
3.15724e-05
4.23725e-05
4.99401e-05
5.31956e-05
5.35005e-05
5.24869e-05
4.91982e-05
4.46005e-05
3.91051e-05
3.34005e-05
2.73062e-05
2.30432e-05
2.00034e-05
1.81053e-05
1.72057e-05
1.74372e-05
1.77108e-05
1.83015e-05
1.93738e-05
2.17761e-05
2.5384e-05
2.99952e-05
3.50144e-05
3.99071e-05
4.4208e-05
4.70845e-05
4.7221e-05
4.26104e-05
3.11949e-05
1.78546e-05
8.56691e-06
5.46674e-08
5.37792e-08
9.99059e-06
2.07537e-05
3.29977e-05
4.29979e-05
5.02279e-05
5.33742e-05
5.39815e-05
5.26336e-05
4.92365e-05
4.4066e-05
3.7758e-05
3.24306e-05
2.80238e-05
2.45051e-05
2.17522e-05
1.98294e-05
1.84025e-05
1.75379e-05
1.75343e-05
1.80997e-05
1.92139e-05
2.13579e-05
2.42702e-05
2.83455e-05
3.34792e-05
3.88317e-05
4.34515e-05
4.63976e-05
4.64175e-05
4.15977e-05
3.01697e-05
1.71085e-05
8.43155e-06
5.44278e-08
5.32377e-08
9.8977e-06
1.98693e-05
3.19897e-05
4.28861e-05
5.01344e-05
5.35164e-05
5.42095e-05
5.25549e-05
4.80678e-05
4.31639e-05
3.79788e-05
3.31079e-05
2.88969e-05
2.54451e-05
2.25074e-05
2.05609e-05
1.86681e-05
1.70452e-05
1.64641e-05
1.69754e-05
1.84662e-05
2.04292e-05
2.3258e-05
2.7123e-05
3.19346e-05
3.72511e-05
4.21165e-05
4.52799e-05
4.54777e-05
4.07501e-05
2.98525e-05
1.8285e-05
8.52497e-06
5.48972e-08
5.32408e-08
1.00556e-05
2.11658e-05
3.37449e-05
4.426e-05
5.07904e-05
5.37746e-05
5.35702e-05
5.18185e-05
4.83468e-05
4.32739e-05
3.79989e-05
3.35273e-05
2.96216e-05