/*--------------------------------*- C++ -*----------------------------------*\
  =========                 |
  \\      /  F ield         | OpenFOAM: The Open Source CFD Toolbox
   \\    /   O peration     | Website:  https://openfoam.org
    \\  /    A nd           | Version:  8
     \\/     M anipulation  |
\*---------------------------------------------------------------------------*/
FoamFile
{
    version     2.0;
    format      ascii;
    class       volScalarField;
    location    "1000";
    object      k;
}
// * * * * * * * * * * * * * * * * * * * * * * * * * * * * * * * * * * * * * //

dimensions      [0 2 -2 0 0 0 0];

internalField   nonuniform List<scalar> 
78750
(
7.36122e-10
7.89492e-09
1.57566e-08
2.45879e-08
3.45353e-08
4.5656e-08
5.79658e-08
7.14626e-08
8.61277e-08
1.01916e-07
1.18729e-07
1.36445e-07
1.54925e-07
1.74014e-07
1.93554e-07
2.13382e-07
2.33339e-07
2.53276e-07
2.73045e-07
2.92497e-07
3.11456e-07
3.29691e-07
3.46767e-07
3.62168e-07
3.74956e-07
3.83185e-07
3.83291e-07
3.76835e-07
3.5151e-07
3.17954e-07
2.89167e-07
2.56609e-07
2.04432e-07
1.18592e-07
1.1609e-08
6.40304e-09
9.91147e-08
1.97908e-07
3.05934e-07
4.25133e-07
5.56093e-07
6.99269e-07
8.54924e-07
1.02321e-06
1.20324e-06
1.39376e-06
1.59316e-06
1.79958e-06
2.01092e-06
2.22492e-06
2.43924e-06
2.65149e-06
2.85933e-06
3.06044e-06
3.2524e-06
3.43223e-06
3.59715e-06
3.74308e-06
3.86508e-06
3.95785e-06
4.00936e-06
4.00724e-06
3.96618e-06
3.85864e-06
3.67852e-06
3.4397e-06
2.98293e-06
2.10987e-06
1.02256e-06
6.49143e-08
2.49497e-08
3.86227e-07
7.70925e-07
1.18967e-06
1.64733e-06
2.14258e-06
2.67303e-06
3.23502e-06
3.82521e-06
4.43699e-06
5.06223e-06
5.69226e-06
6.3183e-06
6.93171e-06
7.52403e-06
8.08738e-06
8.61457e-06
9.09957e-06
9.53792e-06
9.9261e-06
1.02574e-05
1.0527e-05
1.07303e-05
1.086e-05
1.09134e-05
1.09064e-05
1.08365e-05
1.06327e-05
1.02058e-05
9.02133e-06
6.71314e-06
4.20601e-06
2.39852e-06
1.06266e-06
7.0074e-08
8.01167e-08
1.23926e-06
2.46363e-06
3.77907e-06
5.19179e-06
6.68731e-06
8.24558e-06
9.84248e-06
1.14531e-05
1.30563e-05
1.46233e-05
1.61265e-05
1.75415e-05
1.88493e-05
2.00314e-05
2.10725e-05
2.19621e-05
2.26945e-05
2.32665e-05
2.36882e-05
2.39614e-05
2.40794e-05
2.40738e-05
2.40047e-05
2.39024e-05
2.38829e-05
2.40283e-05
2.48931e-05
2.64079e-05
2.75781e-05
2.66026e-05
2.04651e-05
1.16897e-05
5.34096e-06
3.35999e-07
2.22869e-07
3.43959e-06
6.78782e-06
1.03112e-05
1.40047e-05
1.78139e-05
2.16663e-05
2.54856e-05
2.91947e-05
3.27239e-05
3.60209e-05
3.90273e-05
4.16941e-05
4.39908e-05
4.58966e-05
4.7395e-05
4.84868e-05
4.91809e-05
4.94912e-05
4.94768e-05
4.92396e-05
4.87481e-05
4.80878e-05
4.73562e-05
4.66683e-05
4.60468e-05
4.58451e-05
4.5531e-05
4.31226e-05
3.77946e-05
3.18828e-05
2.4479e-05
1.4513e-05
6.80388e-06
4.06223e-07
5.57411e-07
8.55956e-06
1.66758e-05
2.4947e-05
3.33295e-05
4.16939e-05
4.9878e-05
5.77245e-05
6.50797e-05
7.18085e-05
7.78094e-05
8.30122e-05
8.73623e-05
9.08237e-05
9.33812e-05
9.50564e-05
9.58835e-05
9.59133e-05
9.54136e-05
9.42856e-05
9.27107e-05
9.08828e-05
8.9064e-05
8.76037e-05
8.68316e-05
8.77883e-05
9.22052e-05
9.82653e-05
0.000103949
0.000103492
9.00909e-05
6.15151e-05
3.37444e-05
1.70948e-05
1.0852e-06
1.27163e-06
1.93266e-05
3.68949e-05
5.39992e-05
7.05938e-05
8.65149e-05
0.00010155
0.000115496
0.000128153
0.000139353
0.000148969
0.000156953
0.000163272
0.000167919
0.000170945
0.000172418
0.000172429
0.000171429
0.000169231
0.000166152
0.000162466
0.000158512
0.000154692
0.000151411
0.000148813
0.000148428
0.000148933
0.000148006
0.000141709
0.00012634
0.000101913
6.98751e-05
3.88235e-05
1.98668e-05
1.23839e-06
2.69988e-06
4.02454e-05
7.44688e-05
0.00010581
0.000134685
0.000161249
0.000185497
0.000207329
0.000226608
0.000243222
0.000257104
0.000268258
0.000276734
0.000282615
0.000286039
0.000287163
0.000286442
0.000283925
0.000279969
0.000275021
0.000269619
0.000264419
0.000260161
0.000257359
0.000258517
0.000264486
0.000272256
0.000278892
0.000276725
0.000254754
0.000201951
0.00013185
7.36799e-05
4.14731e-05
2.65712e-06
5.32327e-06
7.70299e-05
0.00013697
0.000187897
0.00023243
0.000271864
0.000306853
0.000337667
0.000364413
0.000387145
0.000405951
0.000420935
0.000432226
0.000440029
0.000444578
0.000446142
0.000445292
0.000442217
0.000437367
0.000431311
0.000424776
0.000418617
0.000413672
0.000410574
0.000412515
0.000418812
0.000427417
0.000433165
0.000425881
0.000385181
0.000299772
0.000188677
9.93885e-05
5.22792e-05
3.26975e-06
9.64021e-06
0.000135503
0.000231145
0.000305294
0.000367384
0.000420848
0.00046737
0.000507797
0.000542625
0.000572205
0.000596839
0.000616812
0.00063239
0.000643866
0.000651553
0.000655815
0.000657091
0.000656193
0.000653574
0.000649952
0.000646122
0.000642827
0.00064049
0.000642208
0.000650111
0.000661535
0.000671995
0.000670792
0.0006428
0.000561678
0.00042673
0.000271911
0.000155775
9.23462e-05
5.90716e-06
1.60755e-05
0.000219011
0.0003585
0.000457689
0.000537469
0.000604862
0.000662865
0.000713093
0.00075655
0.000793972
0.000825936
0.00085291
0.000875314
0.000893513
0.000907869
0.000918775
0.00092668
0.000932114
0.000935759
0.000938451
0.000941133
0.000944814
0.000950609
0.000962729
0.000981717
0.00100766
0.00103358
0.00104192
0.00100624
0.000880476
0.000659147
0.000406377
0.000224234
0.000127466
8.09689e-06
2.45925e-05
0.000325568
0.000515371
0.000640185
0.000735677
0.000815668
0.000884381
0.000944207
0.000996715
0.00104304
0.00108408
0.00112049
0.00115282
0.00118153
0.00120702
0.00122972
0.00125004
0.00126845
0.00128551
0.0013018
0.00131799
0.00133477
0.00135299
0.00137592
0.00140579
0.00143666
0.00145503
0.00143961
0.00135462
0.00116812
0.000880079
0.000567773
0.000343119
0.000211721
1.36523e-05
3.49776e-05
0.000451402
0.000692922
0.000840322
0.000948529
0.00103901
0.00111696
0.00118546
0.00124663
0.001302
0.00135275
0.00139977
0.00144375
0.00148526
0.0015248
0.00156288
0.00160003
0.00163689
0.00167421
0.00171286
0.00175382
0.00179855
0.00185192
0.00192106
0.00200648
0.00209681
0.00216641
0.00216858
0.00204113
0.00173101
0.00126806
0.00079936
0.000479998
0.000294632
1.90276e-05
4.66189e-05
0.00058866
0.000878966
0.0010446
0.00116217
0.0012604
0.00134517
0.00142012
0.00148782
0.00155019
0.00160865
0.00166427
0.00171782
0.00176987
0.00182091
0.00187135
0.00192159
0.00197204
0.00202316
0.00207546
0.00213002
0.00218882
0.00225598
0.00233222
0.00240614
0.00245369
0.00249283
0.0024564
0.00252022
0.00226446
0.00173726
0.00115375
0.000727645
0.000454144
2.97623e-05
5.87055e-05
0.000727252
0.00106101
0.0012418
0.00136643
0.00146933
0.0015576
0.00163534
0.00170546
0.00177013
0.00183093
0.0018889
0.00194472
0.00199874
0.00205115
0.00210192
0.00215091
0.00219785
0.00224247
0.00228456
0.00232363
0.00235657
0.00237803
0.00236426
0.00238601
0.00244208
0.00256977
0.0026244
0.00253279
0.00248778
0.0020501
0.00149614
0.00104578
0.000695305
4.66324e-05
7.05138e-05
0.000859601
0.00123238
0.00142783
0.00155832
0.00166245
0.00175043
0.00182664
0.00189431
0.00195582
0.00201285
0.00206644
0.00211715
0.00216513
0.00221021
0.00225201
0.00229001
0.00232362
0.00235166
0.00237136
0.00238176
0.00239775
0.00242156
0.00244815
0.00243462
0.00248853
0.00263442
0.00268364
0.00256119
0.0024528
0.00223325
0.00179068
0.00138101
0.000983042
6.76789e-05
8.17462e-05
0.00098408
0.0013929
0.00160162
0.00173586
0.00183823
0.00192247
0.00199327
0.00205412
0.00210764
0.00215568
0.00219938
0.0022393
0.00227557
0.00230807
0.00233685
0.00236064
0.00238053
0.0023981
0.00241425
0.00243044
0.00244452
0.00247085
0.00250117
0.00246701
0.00247633
0.00248399
0.0025085
0.00253599
0.0025767
0.00235403
0.00200338
0.00166198
0.00125121
8.83388e-05
9.18096e-05
0.00109647
0.00153738
0.00175694
0.0018944
0.0019946
0.00207251
0.00213519
0.00218637
0.00222896
0.00226505
0.00229605
0.00232259
0.00234433
0.00236078
0.00237319
0.00238363
0.00239327
0.00240403
0.00240861
0.00237996
0.00238483
0.00241246
0.00248339
0.00243199
0.00244853
0.00249263
0.00254569
0.00257766
0.00263151
0.00245467
0.00217797
0.00189485
0.0014813
0.000106771
0.000100557
0.00119642
0.00166433
0.00189002
0.0020262
0.00212179
0.0021927
0.00224586
0.0022857
0.00231539
0.00233716
0.0023528
0.00236378
0.00237157
0.00237707
0.00238068
0.00238677
0.00239479
0.00239973
0.00237801
0.00238737
0.00242794
0.00253458
0.00261709
0.00268339
0.00271269
0.0025768
0.00257229
0.00257573
0.00260136
0.00253685
0.00232941
0.00209166
0.00167542
0.000122801
0.000108308
0.00128708
0.00177799
0.00200551
0.0021351
0.00221982
0.00227739
0.00231593
0.00234082
0.00235626
0.00236571
0.00237094
0.00237418
0.00237762
0.00238358
0.00238981
0.00239179
0.00237129
0.00237984
0.00242483
0.0024593
0.00247769
0.00240821
0.00240788
0.00244627
0.00251296
0.00256792
0.00260159
0.00260551
0.00264276
0.00262351
0.00247092
0.00227389
0.00185692
0.000138087
0.000115138
0.00136872
0.00187859
0.00210447
0.0022242
0.00229517
0.00233727
0.00235984
0.00237151
0.00237766
0.00237934
0.00238027
0.00237764
0.00235804
0.00235242
0.00235325
0.00235835
0.00237203
0.0024108
0.002436
0.00244773
0.00239751
0.00240165
0.00242551
0.00246059
0.00250945
0.00255217
0.00259216
0.00262954
0.00266947
0.0026911
0.00257801
0.00241304
0.00199856
0.000150152
0.000120934
0.00143992
0.00196287
0.00218206
0.00228694
0.00233826
0.0023556
0.00234274
0.00234816
0.00236832
0.00236674
0.00236581
0.00236945
0.0023771
0.00238449
0.00236595
0.00236494
0.00236698
0.00237134
0.00237924
0.00238993
0.00243797
0.00249488
0.00255678
0.00260957
0.00262538
0.00257997
0.00258977
0.00265263
0.00269901
0.00277232
0.00269861
0.00255874
0.00214197
0.000162456
0.000125892
0.00150239
0.00203312
0.00224139
0.00232785
0.00235461
0.0023421
0.0023494
0.00237613
0.0023806
0.00237441
0.00237218
0.00237379
0.00238139
0.00239298
0.00240215
0.00238241
0.0023784
0.00238404
0.00239997
0.0024422
0.00254887
0.0025977
0.0024985
0.00252411
0.00252395
0.00256368
0.00261718
0.00267229
0.00272952
0.00281121
0.00278208
0.0026791
0.00226998
0.000173408
0.000130113
0.00155681
0.00209082
0.00228359
0.00234416
0.00233404
0.00233701
0.00234669
0.00237273
0.00237488
0.00237894
0.00238293
0.00236489
0.00236333
0.00237005
0.00238024
0.0024103
0.00243105
0.00245474
0.00248156
0.00246867
0.0024971
0.00252908
0.00254235
0.00254258
0.00275375
0.00258538
0.00260562
0.00267196
0.00274398
0.00283031
0.00283516
0.00276484
0.00236627
0.000181632
0.000133865
0.00160535
0.00213874
0.00231419
0.00235598
0.00236538
0.00236831
0.00237104
0.00237481
0.00237858
0.00238272
0.00238796
0.00239462
0.00240278
0.00238659
0.00239037
0.00241677
0.00243683
0.00246392
0.00250406
0.00256366
0.00264982
0.00274759
0.00286311
0.0029679
0.00307851
0.00310755
0.00309647
0.00303316
0.00293207
0.00287808
0.00291088
0.00285979
0.00246556
0.000190053
0.000137168
0.0016487
0.00218118
0.00234144
0.00237194
0.00237732
0.00237783
0.0023786
0.00238049
0.0023839
0.00238718
0.00239067
0.00239751
0.00240391
0.00241175
0.00241824
0.00239904
0.00239969
0.0024064
0.00240752
0.00242651
0.002473
0.00256235
0.00265079
0.00274061
0.00283159
0.00290911
0.00294635
0.00292915
0.00287481
0.00287193
0.00292521
0.00291717
0.00254334
0.000196565
0.000138916
0.001674
0.00219448
0.00233411
0.00237309
0.00238056
0.00238312
0.00238501
0.00238737
0.00238942
0.00239454
0.00240149
0.00240703
0.00238909
0.00238637
0.0023902
0.00240004
0.00241342
0.00242885
0.00246375
0.00255894
0.002658
0.00277324
0.00282073
0.00262092
0.00261506
0.00270459
0.00276889
0.00281225
0.00282545
0.00285451
0.00289811
0.0029409
0.00258385
0.000200187
0.000141237
0.00170915
0.00222905
0.00235048
0.00238306
0.00238915
0.00238803
0.00238665
0.00237287
0.00237062
0.0023733
0.00237829
0.00238449
0.0023887
0.00239054
0.00239261
0.00240174
0.00241596
0.00244172
0.00248961
0.0024705
0.00252609
0.00261337
0.00270285
0.00276681
0.00276359
0.00268506
0.00269239
0.00275182
0.00282166
0.00287731
0.00297563
0.00301681
0.00266352
0.000207387
0.00014401
0.00174474
0.00225091
0.00230722
0.00233942
0.00235193
0.0023563
0.00236474
0.00237233
0.00237806
0.00238271
0.00238947
0.00241087
0.00242084
0.0024274
0.00241556
0.00241808
0.00243176
0.00248153
0.00253292
0.00259659
0.00266435
0.00269891
0.00252244
0.0024856
0.00252951
0.00259651
0.00268352
0.00275077
0.00280984
0.00287106
0.0029587
0.00297553
0.00266766
0.000208038
0.000147828
0.00179132
0.00229632
0.0023365
0.00235699
0.00236371
0.00236661
0.00237198
0.00239573
0.00240319
0.00240875
0.00241618
0.00242568
0.00243406
0.00244523
0.00245749
0.00245904
0.00242202
0.00241031
0.0024208
0.00246588
0.0026399
0.00277975
0.00289439
0.00302638
0.00309808
0.00305377
0.00274207
0.00274277
0.00281592
0.00292261
0.00298081
0.00298592
0.00267997
0.000209733
0.00014891
0.00181067
0.00230768
0.00234163
0.00236404
0.00236888
0.0023699
0.00237316
0.0023764
0.00238193
0.00238984
0.00240064
0.00242444
0.00243631
0.00244782
0.00246139
0.00247922
0.00248069
0.0024401
0.00243272
0.00248126
0.00264615
0.00279603
0.00292502
0.00308451
0.00324593
0.00333358
0.0032841
0.00317956
0.0030802
0.00302592
0.00300581
0.00303088
0.00272785
0.000212509
0.000148755
0.00181647
0.00230595
0.00232971
0.00235477
0.00237047
0.00237638
0.00237911
0.00238253
0.00238759
0.0023931
0.00240093
0.00240846
0.00241515
0.00242125
0.00243194
0.00246536
0.0024875
0.00249516
0.00244734
0.00245526
0.0024704
0.00249972
0.00259929
0.00267734
0.00273275
0.00307425
0.0031113
0.00292033
0.00289875
0.00292471
0.00298321
0.00292946
0.00274579
0.000213834
0.000146746
0.00180712
0.00228333
0.0023175
0.00235816
0.00237174
0.00238147
0.00239004
0.00239447
0.00239602
0.0023962
0.00240141
0.0024101
0.00241588
0.00241426
0.00241487
0.00241669
0.00241582
0.00242036
0.00243822
0.00245853
0.00248297
0.0025072
0.0025146
0.00251404
0.0025446
0.00264507
0.00272172
0.00279279
0.00285924
0.00295835
0.00299721
0.00301527
0.00277312
0.000214164
0.000148649
0.00183003
0.00228108
0.00233328
0.00235711
0.00237131
0.00237843
0.00238437
0.00239141
0.00240144
0.00240973
0.00241695
0.00242173
0.00243109
0.0024384
0.00244383
0.00244302
0.00243197
0.00243869
0.00245602
0.00246698
0.00248098
0.0025402
0.00250283
0.00251908
0.00257902
0.00264522
0.00270736
0.00277698
0.00285059
0.0029599
0.00302426
0.00306578
0.00278285
0.000214851
0.000150623
0.00183077
0.00216767
0.00231049
0.0023569
0.00237491
0.00238886
0.00239805
0.00240246
0.00240411
0.00240817
0.00241746
0.00243238
0.00246063
0.00247659
0.00248931
0.00249238
0.00245806
0.00246432
0.00249972
0.00253916
0.00259285
0.00289849
0.00298366
0.00268938
0.0026411
0.00268104
0.00271911
0.00278174
0.00285022
0.00291776
0.00299344
0.00310269
0.00280921
0.000216684
0.000151459
0.00185402
0.00221167
0.00232126
0.00235981
0.00237559
0.00238813
0.00241895
0.00243082
0.0024296
0.00240829
0.00241027
0.00242066
0.00241659
0.00242411
0.00243348
0.00244579
0.00246268
0.00247498
0.00248593
0.00252323
0.0025673
0.00266745
0.00271051
0.00263669
0.00262548
0.00268843
0.00276614
0.00282954
0.00291115
0.00296165
0.00300306
0.00298619
0.00277429
0.0002151
0.000154236
0.00190114
0.00236983
0.00235946
0.00237207
0.00238075
0.00239056
0.00239281
0.00241755
0.00240787
0.00241871
0.00242824
0.00245298
0.00243878
0.00245451
0.00246684
0.00248929
0.00250313
0.00252227
0.00254764
0.00273283
0.00286805
0.00292588
0.00267992
0.00267842
0.00301659
0.0028456
0.00298715
0.00288391
0.00292689
0.00297192
0.00298995
0.00295958
0.00276525
0.000215468
0.000151875
0.00187678
0.00233315
0.00234332
0.00237186
0.00238547
0.00238852
0.00239506
0.00240429
0.00241411
0.00242349
0.00242665
0.00245316
0.00243979
0.00245438
0.00247471
0.00249647
0.00252142
0.00260618
0.00266022
0.00267543
0.00262418
0.0029801
0.0031941
0.00328727
0.00327696
0.00318476
0.00308565
0.002959
0.00295898
0.00297599
0.00301341
0.00296651
0.00276633
0.000215863
0.000152392
0.00188266
0.00234225
0.00235624
0.00237492
0.00238562
0.00239011
0.00238904
0.00239667
0.00241612
0.00243512
0.00244956
0.00245358
0.00244574
0.00244387
0.00245802
0.00246731
0.00247485
0.00250737
0.00257322
0.00264651
0.00273256
0.00282919
0.00290523
0.00291842
0.00284358
0.00284137
0.00285785
0.00290949
0.00300686
0.00303264
0.00300875
0.00300457
0.00278268
0.000218032
0.000152485
0.00186455
0.00220359
0.00240228
0.00243656
0.00243785
0.00243512
0.00242985
0.00240771
0.0024131
0.00242905
0.00244348
0.00245733
0.00246743
0.00246746
0.00247076
0.00248361
0.00250226
0.00251169
0.00251564
0.00252084
0.0025218
0.00252141
0.00252859
0.00257136
0.00263152
0.00272407
0.00278288
0.0028294
0.0029167
0.00298182
0.00301056
0.00297861
0.0027849
0.000220463
0.000152924
0.00187592
0.00223311
0.00233837
0.0023759
0.00238808
0.00239052
0.00239429
0.0024082
0.00242315
0.00243304
0.00242966
0.0024429
0.00247172
0.00248945
0.00248204
0.00249117
0.00251773
0.00254629
0.00254709
0.00254011
0.00258544
0.00279616
0.00291407
0.0030055
0.00301038
0.00275209
0.0027818
0.00301504
0.00302713
0.00301717
0.0030739
0.00309793
0.00282181
0.000224242
0.000152506
0.00189318
0.00233419
0.00242219
0.00243978
0.00243337
0.00240151
0.0024023
0.00241582
0.00245237
0.00246454
0.00244731
0.00245058
0.00246582
0.00251813
0.00248898
0.00249087
0.00251316
0.00255233
0.00254403
0.00253677
0.00254219
0.00256067
0.00259768
0.00268351
0.00301532
0.00312691
0.00312591
0.00292202
0.00291123
0.00295908
0.00306455
0.00312745
0.0028597
0.000227323
0.000154645
0.00192352
0.00233661
0.00235376
0.00238277
0.00239807
0.00240932
0.00242239
0.00243153
0.00243909
0.00243968
0.00244302
0.00244158
0.00245008
0.00246247
0.00247938
0.00249507
0.00250999
0.00252419
0.00253967
0.00255476
0.00256777
0.00258126
0.00260368
0.00265763
0.00278646
0.00289812
0.00295071
0.00287902
0.00287866
0.00291594
0.00297761
0.00298131
0.00285046
0.000224233
0.000156077
0.00194649
0.00235071
0.00235967
0.00238439
0.00240181
0.0024168
0.00244789
0.00246449
0.00248118
0.00249957
0.00250343
0.00247246
0.00247569
0.00248922
0.00250248
0.00251542
0.00252865
0.00254398
0.00256271
0.00258444
0.0026059
0.00262202
0.0026327
0.00264875
0.00268351
0.00273052
0.0027797
0.00283339
0.00298457
0.00299952
0.00304191
0.0030797
0.00284562
0.000219611
0.000159372
0.0019891
0.00239529
0.00239337
0.00240063
0.00241361
0.00243886
0.00244552
0.00244906
0.00243729
0.00246945
0.00244813
0.00245546
0.0024712
0.00248774
0.00250255
0.00251571
0.00252826
0.00254234
0.0025596
0.0025811
0.0026059
0.00263019
0.00265053
0.00266479
0.0026806
0.00271321
0.00278151
0.00293332
0.00298655
0.00302806
0.00306047
0.00310405
0.00281713
0.000216023
0.000159233
0.00197401
0.00224492
0.00235174
0.00240434
0.0024349
0.00243561
0.00241499
0.00241836
0.00243304
0.00246981
0.00245588
0.00246408
0.0024773
0.00249146
0.00250505
0.00251888
0.00253323
0.00254887
0.00256352
0.00257754
0.00259508
0.00261863
0.00264406
0.00266644
0.00269123
0.00273078
0.002802
0.0029626
0.00298355
0.00301264
0.00308097
0.00313385
0.00281226
0.000215694
0.00016365
0.00204057
0.00244923
0.00242603
0.00245006
0.00244096
0.00242697
0.00243533
0.0024639
0.00247459
0.00245066
0.00245743
0.00246957
0.00248116
0.00249599
0.00251381
0.00253503
0.00255906
0.00258456
0.00261477
0.00264614
0.00267146
0.00268949
0.00270517
0.00272396
0.00274923
0.00278453
0.00282787
0.00288594
0.00293996
0.00298494
0.00304737
0.00317755
0.00283439
0.000218143
0.000162933
0.00202594
0.0024035
0.00246737
0.00244987
0.00241505
0.00244787
0.00246388
0.00247519
0.00248601
0.00245315
0.00245685
0.00247124
0.00248411
0.0025012
0.00252303
0.00254581
0.00256714
0.00258668
0.00260622
0.00262742
0.00265278
0.00268053
0.0027042
0.00272332
0.00275157
0.00278686
0.00282923
0.00287871
0.00293108
0.00298664
0.00309015
0.00316624
0.00285302
0.000219462
0.000164264
0.00202741
0.00229228
0.00235242
0.00237936
0.00239449
0.00240402
0.00241626
0.00243643
0.00246762
0.00245196
0.0024637
0.00247408
0.00248692
0.00250766
0.00253528
0.00256415
0.00258933
0.00260871
0.00262345
0.00263657
0.00265133
0.00267105
0.00269584
0.00272606
0.00277038
0.00281387
0.00285503
0.00289491
0.00293723
0.00298843
0.00303313
0.00304051
0.00284452
0.000221293
0.000166779
0.00207636
0.00245398
0.00242605
0.00242258
0.00242224
0.00242589
0.00243617
0.00246359
0.0024479
0.00245594
0.00248135
0.00251375
0.00252006
0.00253394
0.00256076
0.00259186
0.00261981
0.00264004
0.00265213
0.00265883
0.00266546
0.00267691
0.00269913
0.00272977
0.00277608
0.00282294
0.0028665
0.00290576
0.0029461
0.00300011
0.00303458
0.00301907
0.00286617
0.00022385
0.000169177
0.00210452
0.00249191
0.00251021
0.00248028
0.002463
0.00246247
0.00247182
0.00248807
0.00250114
0.00246599
0.00248228
0.00252925
0.00252063
0.00253839
0.00257489
0.00261695
0.00265455
0.00268229
0.00269809
0.00270293
0.00270132
0.00270274
0.00271481
0.00274123
0.00277947
0.00282423
0.00286848
0.00290882
0.00295132
0.00300205
0.00306602
0.0031742
0.00292135
0.000226425
0.000169622
0.00211146
0.00248519
0.00248672
0.00247224
0.0024509
0.00244577
0.00244546
0.00242675
0.00243772
0.00246152
0.00249677
0.00260143
0.00253783
0.0025444
0.00258175
0.00263022
0.00267735
0.00271498
0.00273904
0.00274865
0.00274635
0.0027386
0.00273654
0.00274957
0.00277749
0.00281819
0.00286585
0.00291473
0.0029618
0.00301166
0.00307005
0.00321597
0.00294913
0.000226583
0.000171232
0.002125
0.00244724
0.00240301
0.00240342
0.00244136
0.00244761
0.00243012
0.00244609
0.00247046
0.00249029
0.00249325
0.00250278
0.00252307
0.00255003
0.00258873
0.00263887
0.00269109
0.00273589
0.00276762
0.00278391
0.00278521
0.0027761
0.00276499
0.00276352
0.00278244
0.00281979
0.00286588
0.00291769
0.00296706
0.00301346
0.00307609
0.00327083
0.00295983
0.000227303
0.000172199
0.00212776
0.00236575
0.00242479
0.00242439
0.0024326
0.00244377
0.00245364
0.0024671
0.00249619
0.00251647
0.00251784
0.00253326
0.0025361
0.00255325
0.00258885
0.00263965
0.00269534
0.00274578
0.0027844
0.00280776
0.00281527
0.0028099
0.00279882
0.00279257
0.00280072
0.00282741
0.00287191
0.0029213
0.002979
0.00307748
0.00317562
0.00328294
0.00297792
0.000227802
0.000174106
0.00216364
0.00250358
0.00250392
0.00243001
0.00242627
0.00245973
0.00247372
0.00246965
0.00253935
0.00260499
0.002667
0.00268526
0.00255791
0.00254643
0.00258066
0.00263407
0.00269352
0.00274843
0.00279219
0.00282101
0.00283385
0.00283363
0.00282635
0.0028213
0.00282694
0.00284761
0.00288082
0.00292241
0.00296875
0.00302519
0.00310596
0.0033149
0.00298415
0.000228054
0.000172553
0.00212561
0.00229251
0.00235733
0.00238056
0.00239068
0.00240204
0.0024182
0.00246303
0.0024368
0.00244703
0.00246442
0.00248425
0.00251346
0.0025407
0.00257845
0.00263316
0.00269568
0.00275443
0.00280179
0.00283384
0.00285
0.00285282
0.00284859
0.00284592
0.00285253
0.00287238
0.00290401
0.00294285
0.00298398
0.00303014
0.0031022
0.00330397
0.00298251
0.000228437
0.000173362
0.00213842
0.00232519
0.00237492
0.00240526
0.00241625
0.00242375
0.0024332
0.00242982
0.002453
0.00249635
0.00253751
0.00256521
0.0025685
0.00254933
0.0025621
0.00261226
0.00268292
0.00275377
0.00281231
0.00285305
0.00287492
0.00288039
0.00287614
0.0028714
0.00287455
0.00289016
0.00291732
0.00295143
0.00298892
0.00303407
0.00310635
0.00329766
0.00300208
0.000230632
0.000173914
0.0021544
0.00237587
0.00240293
0.00242322
0.00243043
0.00243552
0.00243955
0.00244198
0.00248524
0.00254868
0.00261596
0.00268806
0.00273685
0.00274036
0.00266553
0.00265336
0.00269717
0.00276457
0.00283029
0.00288116
0.00291198
0.00292292
0.00291935
0.0029101
0.0029051
0.00291072
0.00292789
0.00295427
0.00298412
0.00301886
0.00306535
0.00314679
0.00298463
0.000230087
0.000174198
0.00217684
0.00251067
0.00251678
0.00249105
0.00247649
0.00247311
0.0024733
0.00245509
0.00248108
0.00249851
0.00250966
0.00262002
0.00272258
0.00278127
0.00276463
0.00269902
0.00270693
0.00276399
0.00283397
0.00289657
0.00294112
0.00296345
0.00296615
0.0029566
0.00294524
0.00294137
0.00294952
0.00297072
0.00300946
0.00306593
0.00312353
0.0031434
0.00299445
0.000230352
0.000174503
0.00217625
0.00249752
0.00240467
0.00239838
0.00243276
0.00244883
0.00246699
0.00249972
0.00252883
0.00256602
0.00251068
0.00254195
0.00266468
0.00274642
0.00275239
0.00268294
0.00268198
0.00273968
0.0028198
0.00289499
0.00295401
0.00299281
0.00300767
0.00300525
0.00299409
0.00298387
0.00298115
0.00298939
0.0030124
0.00304635
0.0030851
0.00309555
0.00297173
0.000228568
0.000172643
0.00214662
0.00245492
0.0024219
0.00241452
0.00241269
0.00243945
0.00241699
0.00242612
0.00245713
0.00253016
0.00250953
0.00254152
0.00257818
0.00271404
0.00278754
0.00278072
0.00271477
0.00272666
0.00279401
0.00287596
0.00294826
0.00299927
0.00303093
0.00304
0.00303491
0.00302362
0.00301361
0.00301074
0.00302149
0.00306488
0.00317807
0.00327918
0.00300237
0.000229738
0.000172342
0.00214113
0.00249375
0.00249522
0.00247192
0.0024617
0.00245594
0.00243144
0.00244307
0.00247719
0.0025804
0.00267787
0.00278457
0.00282115
0.00269766
0.00278915
0.00283111
0.00281509
0.0027565
0.0027737
0.00284572
0.00292381
0.00299003
0.00303342
0.00305859
0.00306334
0.00305552
0.00304346
0.00303566
0.00303951
0.00307293
0.00319583
0.00334868
0.00299524
0.000227944
0.000171433
0.00211917
0.00243655
0.0024687
0.00246643
0.00245377
0.00245216
0.0024479
0.00246527
0.00248479
0.00249663
0.00251861
0.0026902
0.00288751
0.00304455
0.00314143
0.0032188
0.00318175
0.00304348
0.0028035
0.00281243
0.00288858
0.00296727
0.00302609
0.00305882
0.00307461
0.00307535
0.0030647
0.00305294
0.00305092
0.00307938
0.00321496
0.00329398
0.00298218
0.000227961
0.000170272
0.00209052
0.00231267
0.00235058
0.00237802
0.00242248
0.00241068
0.00243089
0.00245133
0.00246934
0.00248418
0.00249099
0.00246901
0.00246103
0.00249587
0.00262862
0.00283308
0.00292775
0.00293523
0.0028806
0.00282061
0.00285169
0.00292403
0.00299616
0.00304852
0.00307368
0.00307873
0.00307205
0.00305937
0.00305283
0.00307091
0.00318538
0.00328379
0.00298645
0.000228588
0.00017012
0.0021059
0.00243261
0.00239036
0.00239631
0.00240148
0.00241339
0.00242882
0.00244079
0.00244553
0.00244646
0.00247338
0.00252586
0.00257525
0.00259926
0.00267833
0.00297026
0.00271698
0.00269023
0.00271574
0.00274
0.00278873
0.00287
0.00295298
0.00301834
0.00305886
0.00307503
0.00307296
0.00306446
0.00306045
0.00307573
0.00314628
0.0033532
0.00300798
0.00023046
0.000169057
0.00208641
0.00232798
0.00239676
0.00241044
0.00241317
0.00242222
0.00242988
0.00243582
0.00243471
0.00245866
0.00250104
0.00257163
0.00266914
0.00275999
0.00281867
0.00280034
0.00266229
0.00260435
0.00261921
0.0026612
0.0027212
0.00280632
0.00289533
0.00297389
0.00302986
0.00306015
0.00306922
0.00306494
0.00306107
0.00307167
0.00312232
0.00333894
0.00302046
0.000230936
0.000168964
0.00210177
0.00244697
0.00247969
0.00245835
0.00242765
0.00242749
0.00243209
0.00244312
0.00244256
0.00247002
0.00250812
0.00256965
0.00262742
0.00271333
0.00281704
0.0029119
0.00295342
0.00288517
0.0027224
0.00268028
0.00271766
0.00278003
0.00286053
0.00293826
0.00299963
0.00303912
0.00305746
0.00306084
0.00305882
0.0030647
0.00309608
0.00319065
0.00300052
0.000230138
0.000167708
0.00207088
0.00230125
0.00238153
0.00239975
0.00244099
0.00244632
0.00244255
0.00248247
0.00250667
0.00254174
0.00257598
0.00259875
0.00252586
0.00254498
0.0025948
0.00266328
0.00274591
0.0029029
0.00295274
0.00290363
0.00279736
0.00278085
0.00282734
0.00289762
0.00296613
0.00301561
0.00304435
0.00305713
0.00306216
0.00307132
0.00309554
0.00313425
0.00298795
0.000229488
0.000167631
0.00208661
0.00243435
0.00246664
0.00242029
0.00244863
0.00244652
0.00245352
0.00247637
0.00249662
0.00249822
0.00246163
0.00247804
0.00253387
0.00261148
0.00269757
0.00277911
0.00285211
0.00291925
0.00297084
0.00296291
0.00289859
0.00287225
0.00286255
0.00289771
0.00295203
0.0030027
0.00303719
0.00305556
0.00306368
0.00307102
0.00308899
0.00308589
0.00297513
0.0002285
0.000165945
0.00204988
0.00229739
0.00237082
0.00240776
0.00244139
0.00245076
0.0024606
0.00246895
0.00243548
0.00244888
0.00247501
0.00250538
0.00254432
0.00260422
0.00267029
0.00273601
0.00278299
0.00281031
0.00282578
0.00286002
0.00289353
0.00287526
0.00287116
0.00289705
0.00294303
0.00298857
0.00302504
0.0030504
0.00306749
0.00308875
0.00315277
0.00337003
0.00303119
0.000230489
0.000165958
0.00205571
0.00241876
0.00248414
0.00247916
0.00246849
0.00245706
0.00242672
0.00243281
0.00245418
0.00246598
0.00248814
0.00253019
0.00255541
0.00256575
0.002588
0.0026441
0.00268206
0.0026878
0.00266577
0.0026766
0.00272422
0.00278283
0.00282528
0.00287178
0.002922
0.00297131
0.00301159
0.00304192
0.00306655
0.00309552
0.00316147
0.00342199
0.00306011
0.000233223
0.000163469
0.0020062
0.00226713
0.00238102
0.00240984
0.00240945
0.00243975
0.00243198
0.00244575
0.00247025
0.00253436
0.00257159
0.00251223
0.00255287
0.00253514
0.00254458
0.00255824
0.00261439
0.00270826
0.00278543
0.00282914
0.00285994
0.00289806
0.00290217
0.00289966
0.00292429
0.00296536
0.00300478
0.00303722
0.00306553
0.00309935
0.0031695
0.00343264
0.00308464
0.000235545
0.000162609
0.00199101
0.00225456
0.00236578
0.00240209
0.00241386
0.00242174
0.00244098
0.00246259
0.00248348
0.00249242
0.00248377
0.00247711
0.0026729
0.00276809
0.00284353
0.00290519
0.00291754
0.00272708
0.00275159
0.00283326
0.00289343
0.00290737
0.00291688
0.00291333
0.0029294
0.00296161
0.002999
0.00303315
0.00306492
0.00310171
0.00315706
0.00327625
0.00309938
0.000238837
0.000160883
0.00197766
0.00228031
0.0023781
0.00240082
0.00241354
0.0024232
0.00243911
0.00246186
0.00251701
0.00255866
0.0026005
0.00262394
0.00262407
0.00248227
0.00249093
0.00250393
0.00251187
0.00252182
0.0025452
0.00258576
0.00266136
0.00276271
0.00282995
0.00288481
0.00291724
0.00295255
0.00299172
0.00302835
0.00306274
0.0030999
0.0031478
0.00319034
0.00308148
0.000239555
0.000159749
0.0019733
0.00236098
0.00243509
0.00239834
0.0024001
0.00240954
0.002423
0.00244368
0.00244173
0.00244371
0.00245419
0.00247398
0.00249423
0.00252276
0.00254666
0.00257614
0.00260863
0.00264525
0.00273436
0.00305943
0.00319061
0.00324019
0.00320229
0.00293168
0.00288823
0.00292646
0.00297604
0.00302125
0.00306181
0.00310425
0.00315876
0.00318876
0.00309989
0.000241413
0.000157883
0.00193433
0.00222125
0.00235083
0.00240207
0.00241978
0.00243209
0.00244285
0.00245908
0.00246241
0.00245947
0.00246943
0.00248994
0.00252284
0.00253557
0.00253805