/*--------------------------------*- C++ -*----------------------------------*\
  =========                 |
  \\      /  F ield         | OpenFOAM: The Open Source CFD Toolbox
   \\    /   O peration     | Website:  https://openfoam.org
    \\  /    A nd           | Version:  8
     \\/     M anipulation  |
\*---------------------------------------------------------------------------*/
FoamFile
{
    version     2.0;
    format      ascii;
    class       volScalarField;
    location    "1000";
    object      nut;
}
// * * * * * * * * * * * * * * * * * * * * * * * * * * * * * * * * * * * * * //

dimensions      [0 2 -1 0 0 0 0];

internalField   nonuniform List<scalar> 
78750
(
7.97548e-13
2.22957e-10
4.44963e-10
6.94337e-10
9.75217e-10
1.28921e-09
1.63676e-09
2.01782e-09
2.43184e-09
2.87755e-09
3.35218e-09
3.85227e-09
4.37389e-09
4.91272e-09
5.46422e-09
6.02384e-09
6.58711e-09
7.14974e-09
7.70765e-09
8.25655e-09
8.79156e-09
9.30608e-09
9.78785e-09
1.02223e-08
1.05829e-08
1.08147e-08
1.08167e-08
1.06325e-08
9.91303e-09
8.95396e-09
8.1093e-09
7.11204e-09
5.50671e-09
3.0293e-09
1.02157e-11
4.72774e-12
9.36215e-09
1.86929e-08
2.88947e-08
4.01507e-08
5.25162e-08
6.60339e-08
8.07285e-08
9.66142e-08
1.13608e-07
1.31589e-07
1.50408e-07
1.69888e-07
1.8983e-07
2.10022e-07
2.30243e-07
2.50268e-07
2.69874e-07
2.88844e-07
3.06949e-07
3.23909e-07
3.3946e-07
3.53218e-07
3.64713e-07
3.73446e-07
3.78271e-07
3.78005e-07
3.73985e-07
3.63501e-07
3.45703e-07
1.88241e-07
1.00741e-07
6.89862e-08
6.48597e-08
3.88978e-11
1.84218e-11
3.648e-08
7.28087e-08
1.12346e-07
1.5555e-07
2.02296e-07
2.52356e-07
3.05384e-07
3.61065e-07
4.18775e-07
4.77747e-07
5.37162e-07
5.96194e-07
6.54026e-07
7.09863e-07
7.62962e-07
8.12645e-07
8.58346e-07
8.99643e-07
9.36207e-07
9.67406e-07
9.92773e-07
1.01188e-06
1.02404e-06
1.02896e-06
1.02808e-06
1.02105e-06
1.00094e-06
9.58799e-07
4.86318e-07
2.28249e-07
1.13189e-07
8.28324e-08
5.03219e-08
4.19887e-11
5.91547e-11
1.17042e-07
2.32645e-07
3.56814e-07
4.90131e-07
6.31228e-07
7.78209e-07
9.28798e-07
1.08064e-06
1.23176e-06
1.37944e-06
1.52106e-06
1.65434e-06
1.7775e-06
1.8888e-06
1.98679e-06
2.0705e-06
2.13938e-06
2.19315e-06
2.23274e-06
2.25834e-06
2.2693e-06
2.26857e-06
2.2618e-06
2.25172e-06
2.24909e-06
2.26122e-06
2.33931e-06
1.5799e-06
1.05262e-06
7.3232e-07
5.07372e-07
4.51173e-07
1.71001e-07
2.0133e-10
1.64557e-10
3.24825e-07
6.40898e-07
9.73383e-07
1.32179e-06
1.681e-06
2.04416e-06
2.40408e-06
2.7535e-06
3.08586e-06
3.39626e-06
3.67919e-06
3.93008e-06
4.14604e-06
4.32517e-06
4.46589e-06
4.56831e-06
4.63328e-06
4.6621e-06
4.66035e-06
4.6376e-06
4.59086e-06
4.52811e-06
4.4584e-06
4.3923e-06
4.33142e-06
4.30801e-06
3.14769e-06
1.91908e-06
1.16065e-06
7.66977e-07
5.87753e-07
6.61045e-07
1.62267e-07
2.43406e-10
4.11568e-10
8.08262e-07
1.57426e-06
2.3545e-06
3.14487e-06
3.93319e-06
4.70418e-06
5.44304e-06
6.13534e-06
6.76841e-06
7.33272e-06
7.82172e-06
8.23033e-06
8.55518e-06
8.7949e-06
8.95157e-06
9.0284e-06
9.03022e-06
8.98223e-06
8.87511e-06
8.72588e-06
8.55271e-06
8.38007e-06
8.24047e-06
8.16426e-06
8.2479e-06
7.69747e-06
5.37404e-06
3.88638e-06
2.82286e-06
2.03369e-06
1.48253e-06
1.74717e-06
3.41455e-07
6.50241e-10
9.38916e-10
1.82475e-06
3.48238e-06
5.09521e-06
6.65905e-06
8.15858e-06
9.57391e-06
1.0886e-05
1.20761e-05
1.31287e-05
1.40318e-05
1.4781e-05
1.53734e-05
1.58084e-05
1.60909e-05
1.62272e-05
1.6226e-05
1.61298e-05
1.5921e-05
1.56292e-05
1.52803e-05
1.49057e-05
1.4543e-05
1.42295e-05
1.39775e-05
1.39287e-05
9.90494e-06
6.74188e-06
4.54298e-06
3.0673e-06
2.15248e-06
1.69424e-06
2.26484e-06
3.38979e-07
7.42029e-10
1.99347e-09
3.79928e-06
7.02727e-06
9.9811e-06
1.27005e-05
1.52005e-05
1.7481e-05
1.9533e-05
2.13438e-05
2.29031e-05
2.42048e-05
2.52497e-05
2.60424e-05
2.6591e-05
2.69085e-05
2.70098e-05
2.69378e-05
2.6697e-05
2.63208e-05
2.58512e-05
2.53383e-05
2.48433e-05
2.44348e-05
2.41595e-05
2.42499e-05
2.05286e-05
1.51663e-05
1.10881e-05
8.09601e-06
5.88118e-06
4.21438e-06
3.32501e-06
4.51126e-06
6.41334e-07
1.59211e-09
3.93046e-09
6.90003e-06
1.29216e-05
1.77185e-05
2.19093e-05
2.56171e-05
2.89045e-05
3.17973e-05
3.43061e-05
3.64364e-05
3.8197e-05
3.95977e-05
4.06511e-05
4.13765e-05
4.17962e-05
4.19353e-05
4.18477e-05
4.15509e-05
4.1087e-05
4.05092e-05
3.98849e-05
3.92936e-05
3.88126e-05
3.84988e-05
3.86483e-05
2.82989e-05
2.08071e-05
1.53268e-05
1.13388e-05
8.30615e-06
6.04495e-06
4.84959e-06
5.9458e-06
7.3054e-07
1.95919e-09
7.11789e-09
1.0032e-05
2.17988e-05
2.87776e-05
3.46154e-05
3.96372e-05
4.40029e-05
4.77931e-05
5.10552e-05
5.38227e-05
5.61247e-05
5.79882e-05
5.94383e-05
6.05031e-05
6.12119e-05
6.15988e-05
6.17049e-05
6.16062e-05
6.13446e-05
6.09866e-05
6.06057e-05
6.02696e-05
6.00154e-05
6.01296e-05
5.12473e-05
3.83003e-05
2.87252e-05
2.15031e-05
1.60414e-05
1.17597e-05
8.69878e-06
7.45313e-06
8.68751e-06
1.20469e-06
3.53947e-09
1.18694e-08
1.35048e-05
3.25013e-05
4.31237e-05
5.0617e-05
5.69397e-05
6.23756e-05
6.70778e-05
7.11416e-05
7.4637e-05
7.76186e-05
8.01308e-05
8.22133e-05
8.39006e-05
8.52267e-05
8.62281e-05
8.69467e-05
8.74317e-05
8.77459e-05
8.79664e-05
8.81797e-05
8.84774e-05
8.89601e-05
8.74605e-05
6.76605e-05
5.20992e-05
4.01889e-05
3.10071e-05
2.38275e-05
1.78992e-05
1.34275e-05
1.159e-05
1.13405e-05
1.56068e-06
4.85151e-09
1.81579e-08
1.6797e-05
4.16025e-05
6.02889e-05
6.92477e-05
7.67425e-05
8.31728e-05
8.87647e-05
9.36666e-05
9.79863e-05
0.000101807
0.000105193
0.000108195
0.000110856
0.000113213
0.000115306
0.000117173
0.000118857
0.000120408
0.000121879
0.000123329
0.00012482
0.000126425
0.000108804
8.44383e-05
6.62497e-05
5.18819e-05
4.03785e-05
3.10526e-05
2.36633e-05
1.85097e-05
1.73303e-05
1.58694e-05
2.48991e-06
8.18017e-09
2.58257e-08
1.98018e-05
5.06285e-05
7.90968e-05
8.92359e-05
9.77016e-05
0.000104985
0.000111377
0.000117077
0.00012223
0.000126947
0.000131312
0.00013539
0.000139233
0.000142888
0.000146401
0.000149822
0.000153209
0.000156628
0.000160158
0.000163888
0.000167945
0.000155983
0.000129151
0.000106195
8.83605e-05
7.30009e-05
5.89996e-05
4.61762e-05
3.50692e-05
2.72166e-05
2.54498e-05
2.06719e-05
3.34418e-06
1.1401e-08
3.44211e-08
2.24363e-05
5.91675e-05
9.82774e-05
0.00010928
0.000118457
0.000126364
0.000133345
0.00013964
0.000145432
0.000150854
0.000156006
0.000160959
0.000165768
0.000170475
0.000175119
0.000179736
0.000184362
0.000189035
0.000193801
0.000192121
0.00018421
0.000163907
0.000137198
0.000114112
9.30578e-05
7.66859e-05
6.33668e-05
5.67597e-05
4.75868e-05
3.98855e-05
3.94808e-05
3.00415e-05
5.06672e-06
1.7833e-08
4.33452e-08
2.48006e-05
6.67879e-05
0.000114846
0.000128429
0.000138029
0.000146249
0.000153474
0.00015998
0.000165971
0.000171592
0.000176945
0.000182089
0.00018706
0.000191872
0.000196523
0.000200997
0.000205266
0.000207531
0.000198322
0.000185666
0.000173664
0.000151697
0.000121478
9.90499e-05
8.30325e-05
7.25638e-05
6.36597e-05
5.58446e-05
5.41829e-05
5.15959e-05
5.65081e-05
4.13735e-05
7.71216e-06
2.79413e-08
5.20638e-08
2.68352e-05
7.25613e-05
0.00012492
0.000146411
0.000156112
0.00016429
0.000171359
0.00017762
0.000183298
0.000188551
0.000193477
0.000198127
0.000202514
0.000206622
0.000210415
0.000213843
0.000207463
0.000196967
0.000182887
0.000165386
0.000147296
0.000132499
0.000111688
8.91541e-05
7.54854e-05
6.77502e-05
6.10619e-05
5.53596e-05
5.56773e-05
6.23216e-05
7.46102e-05
5.18919e-05
1.08772e-05
4.05521e-08
6.03571e-08
2.84474e-05
7.6333e-05
0.000131187
0.000163038
0.000172561
0.000180377
0.000186927
0.000192537
0.000197455
0.000201855
0.000205842
0.000209471
0.00021275
0.000215669
0.000214589
0.000207384
0.000197024
0.000183089
0.000165735
0.000146638
0.000128461
0.000116116
9.94391e-05
7.97603e-05
6.75197e-05
5.88998e-05
5.42281e-05
5.39685e-05
6.06862e-05
7.20819e-05
8.94566e-05
5.90083e-05
1.37795e-05
5.29313e-08
6.77874e-08
2.94594e-05
7.77546e-05
0.00013273
0.000167997
0.000187177
0.000194388
0.000200165
0.00020486
0.000208745
0.000212017
0.000214807
0.000217175
0.000219009
0.000214168
0.00020711
0.000197592
0.000184936
0.000168858
0.000149255
0.000127044
0.000109507
9.90482e-05
8.65369e-05
6.95607e-05
6.0261e-05
5.47302e-05
5.25084e-05
5.43521e-05
6.45459e-05
8.137e-05
0.000100595
6.36767e-05
1.61758e-05
6.39756e-08
7.42461e-08
2.99156e-05
7.71514e-05
0.000130239
0.000165009
0.000184183
0.000196732
0.000205793
0.00021218
0.00021612
0.000217756
0.000217311
0.000214956
0.000210989
0.000205182
0.000197277
0.000187638
0.000174852
0.000157608
0.000135788
0.000115628
9.9546e-05
9.23563e-05
8.17072e-05
6.89389e-05
6.05194e-05
5.26092e-05
5.08262e-05
5.40282e-05
6.63389e-05
8.92713e-05
0.000108452
6.7105e-05
1.8097e-05
7.35806e-08
7.9969e-08
3.00354e-05
7.53635e-05
0.000125281
0.000158584
0.00017684
0.000188315
0.000196276
0.000201699
0.00020497
0.000206286
0.000205758
0.000203538
0.000199929
0.000195231
0.000188715
0.000179205
0.000164677
0.000148151
0.000130179
0.000110639
9.26153e-05
7.59727e-05
6.80674e-05
5.9425e-05
5.1774e-05
4.88094e-05
4.90494e-05
5.40949e-05
6.94795e-05
9.65081e-05
0.000114489
7.00657e-05
1.98034e-05
8.27397e-08
8.5012e-08
2.99466e-05
7.31967e-05
0.000119793
0.000151451
0.000168885
0.00017954
0.000186676
0.000191516
0.000194487
0.000195671
0.000195341
0.000193418
0.000187508
0.000183835
0.000177446
0.000168885
0.000157514
0.000143381
0.000124417
0.000103636
8.31535e-05
6.95295e-05
6.30079e-05
5.52861e-05
4.81645e-05
4.58344e-05
4.70638e-05
5.39454e-05
7.14019e-05
0.00010148
0.000117887
7.16688e-05
2.09971e-05
8.9969e-08
8.92907e-08
2.967e-05
7.09263e-05
0.000114487
0.000144494
0.000161038
0.000170599
0.000175788
0.000180713
0.000185279
0.000186671
0.000186629
0.000185591
0.000183451
0.000179716
0.000172133
0.000163359
0.00015139
0.000135522
0.000116392
9.63708e-05
7.98424e-05
6.76794e-05
6.2245e-05
5.51501e-05
4.73768e-05
4.36336e-05
4.50599e-05
5.36941e-05
7.29842e-05
0.000106079
0.000121399
7.35732e-05
2.21403e-05
9.73412e-08
9.2952e-08
2.93035e-05
6.87257e-05
0.000109456
0.000137651
0.000153074
0.000161382
0.00016876
0.000175875
0.000179698
0.000181121
0.000181277
0.000180289
0.000178304
0.000175066
0.000169746
0.000159794
0.000147486
0.000131783
0.00011315
9.43945e-05
7.9531e-05
6.6848e-05
5.76207e-05
5.01898e-05
4.27884e-05
4.13534e-05
4.41782e-05
5.33304e-05
7.41649e-05
0.000108395
0.000123002
7.46096e-05
2.30817e-05
1.03904e-07
9.6068e-08
2.88958e-05
6.65974e-05
0.000104568
0.000130528
0.000144051
0.00015406
0.000162174
0.000169593
0.000173532
0.000175961
0.000176809
0.000174565
0.000172086
0.000168658
0.000163546
0.00015708
0.000146401
0.000131599
0.000113151
9.20623e-05
7.50349e-05
6.26486e-05
5.63206e-05
4.82337e-05
4.43829e-05
3.97126e-05
4.23984e-05
5.25191e-05
7.47572e-05
0.000109522
0.000123049
7.45736e-05
2.36584e-05
1.08831e-07
9.88384e-08
2.84945e-05
6.46389e-05
0.000100074
0.000124331
0.000139493
0.000150282
0.000158488
0.000164687
0.00016896
0.000171567
0.000172654
0.000172367
0.000170721
0.000165813
0.000160404
0.000153863
0.000143413
0.000129047
0.000111466
9.33787e-05
7.74746e-05
6.54731e-05
6.06156e-05
5.38702e-05
4.75178e-05
4.59639e-05
4.91356e-05
5.89933e-05
7.99552e-05
0.000111375
0.000124208
7.50061e-05
2.42523e-05
1.13877e-07
1.01277e-07
2.81158e-05
6.28841e-05
9.61904e-05
0.000119415
0.000134844
0.000146092
0.000154557
0.000160856
0.000165251
0.000167903
0.000168959
0.000168795
0.00016712
0.000163912
0.000158659
0.000149331
0.000138132
0.00012324
0.00010451
8.57968e-05
7.01752e-05
5.94568e-05
5.42464e-05
4.78629e-05
4.2266e-05
4.17761e-05
4.56568e-05
5.62966e-05
7.85885e-05
0.000111413
0.000122803
7.43361e-05
2.46631e-05
1.17778e-07
1.02567e-07
2.75459e-05
6.05296e-05
9.14003e-05
0.000114599
0.00013056
0.00014232
0.000151149
0.00015756
0.000161853
0.000164571
0.000165781
0.000165438
0.000162037
0.000158116
0.000152758
0.000145404
0.000135099
0.000121072
0.000104456
8.85739e-05
7.39096e-05
6.29672e-05
5.60317e-05
4.41503e-05
3.77852e-05
3.78767e-05
4.21411e-05
5.36323e-05
7.73431e-05
0.000110408
0.000119647
7.30391e-05
2.47856e-05
1.19948e-07
1.04281e-07
2.72154e-05
5.90004e-05
8.8181e-05
0.000111032
0.000127396
0.000139265
0.00014801
0.000153329
0.000157167
0.00015951
0.000160355
0.000159834
0.000157721
0.000153899
0.000148329
0.00014096
0.000130872
0.000117671
0.000102176
8.33615e-05
6.90915e-05
5.87155e-05
5.31334e-05
4.61459e-05
3.92923e-05
3.66168e-05
3.99926e-05
5.15885e-05
7.61521e-05
0.000110074
0.000121135
7.37391e-05
2.53433e-05
1.24262e-07
1.06328e-07
2.69412e-05
5.745e-05
8.34527e-05
0.000105789
0.000122522
0.000134711
0.000143952
0.000150464
0.000154643
0.000156904
0.000157615
0.000157835
0.00015585
0.000152142
0.000145562
0.000137692
0.000127484
0.000115467
0.00010065
8.55957e-05
7.18424e-05
6.01344e-05
4.95381e-05
4.17632e-05
3.58288e-05
3.47983e-05
3.88781e-05
4.98304e-05
7.33403e-05
0.000107618
0.000119267
7.16509e-05
2.50669e-05
1.24652e-07
1.09147e-07
2.68243e-05
5.67921e-05
8.20917e-05
0.000104053
0.000120742
0.000132963
0.000141973
0.000149347
0.000153501
0.000155661
0.000156221
0.000155503
0.000153292
0.000149751
0.000144459
0.000136234
0.000123162
0.00010865
9.33224e-05
7.89831e-05
6.938e-05
6.08215e-05
5.71501e-05
5.19281e-05
4.42271e-05
4.03728e-05
3.85644e-05
4.78631e-05
7.08323e-05
0.000107055
0.000119037
7.09591e-05
2.47695e-05
1.25667e-07
1.09946e-07
2.62575e-05
5.53882e-05
8.03359e-05
0.000102492
0.000119169
0.000131163
0.000139843
0.000145747
0.00014961
0.000151837
0.000152613
0.000152854
0.000150885
0.000147325
0.000142008
0.000134486
0.000123065
0.000106859
9.07762e-05
7.68727e-05
6.75222e-05
5.99145e-05
5.7863e-05
5.33734e-05
4.66445e-05
4.43108e-05
4.5464e-05
5.3467e-05
7.45573e-05
0.000108598
0.000119344
7.10341e-05
2.46933e-05
1.2733e-07
1.09832e-07
2.55243e-05
5.39454e-05
7.85528e-05
0.000100775
0.000117801
0.00012982
0.000138219
0.000143953
0.000147695
0.000149762
0.000150462
0.000149845
0.000147815
0.000144201
0.000138835
0.000131953
0.00012112
0.000106618
8.84062e-05
7.35154e-05
6.08516e-05
5.15902e-05
5.03027e-05
4.57881e-05
3.90038e-05
4.07692e-05
4.28814e-05
4.90241e-05
7.03099e-05
0.000105592
0.000117998
6.68862e-05
2.42757e-05
1.28124e-07
1.08348e-07
2.46844e-05
5.2288e-05
7.73236e-05
0.00010024
0.000116862
0.000128749
0.000137266
0.000142966
0.000146468
0.000148241
0.00014894
0.000148544
0.00014656
0.000142503
0.000136732
0.000128776
0.000116574
0.000100891
8.51658e-05
7.05395e-05
5.82287e-05
4.94481e-05
4.63005e-05
4.09966e-05
3.54233e-05
3.50388e-05
3.81892e-05
4.88263e-05
7.34947e-05
0.000110719
0.000116529
6.57382e-05
2.41066e-05
1.28322e-07
1.09753e-07
2.4485e-05
5.17016e-05
7.74013e-05
9.95913e-05
0.000115982
0.00012751
0.000135716
0.000141473
0.000145468
0.000147763
0.000148609
0.000148045
0.000146648
0.000143149
0.000137036
0.000127684
0.000114992
0.000100067
8.33868e-05
6.74637e-05
5.49863e-05
4.70982e-05
4.25043e-05
3.84287e-05
3.50009e-05
3.54674e-05
4.00547e-05
5.29909e-05
8.04894e-05
0.000114791
0.000114274
6.49312e-05
2.39758e-05
1.28733e-07
1.1121e-07
2.41903e-05
4.90064e-05
7.6372e-05
9.90247e-05
0.000115475
0.000127256
0.000135561
0.000141087
0.000144465
0.000146492
0.00014741
0.000147117
0.000146104
0.00014305
0.000137752
0.000128332
0.000113252
9.71011e-05
8.09401e-05
6.61297e-05
5.46702e-05
5.10957e-05
4.72095e-05
3.86402e-05
3.5341e-05
3.68775e-05
4.31275e-05
5.89391e-05
8.81078e-05
0.000115196
0.000109653
6.33194e-05
2.4239e-05
1.29831e-07
1.11828e-07
2.43208e-05
4.98303e-05
7.65486e-05
9.88042e-05
0.000114996
0.00012666
0.000136114
0.000142001
0.000145085
0.000145138
0.000145179
0.000144291
0.000140639
0.000135832
0.000129281
0.000120632
0.000109232
9.47298e-05
7.87725e-05
6.43475e-05
5.26574e-05
4.54448e-05
4.05647e-05
3.61843e-05
3.50688e-05
3.83722e-05
4.72114e-05
6.56298e-05
9.60897e-05
0.000118668
0.000107844
6.00959e-05
2.42085e-05
1.28881e-07
1.13878e-07
2.48948e-05
5.32116e-05
7.73096e-05
9.87541e-05
0.000114793
0.000126433
0.000134206
0.000140488
0.000142591
0.000143978
0.000143482
0.000142406
0.000137717
0.00013315
0.000126415
0.000117942
0.00010691
9.39687e-05
7.96205e-05
6.96949e-05
5.93236e-05
4.98791e-05
3.93242e-05
3.61133e-05
4.04657e-05
4.16121e-05
5.30728e-05
6.98539e-05
9.92686e-05
0.000119053
0.000105608
5.9201e-05
2.44141e-05
1.29101e-07
1.12134e-07
2.45747e-05
5.19157e-05
7.58589e-05
9.80005e-05
0.000114607
0.000126085
0.000133991
0.000139006
0.000141604
0.000142175
0.000140767
0.000139011
0.000133376
0.000127694
0.000120641
0.000112116
0.000102558
9.42229e-05
8.33714e-05
7.03952e-05
5.65008e-05
5.2564e-05
4.76736e-05
4.43671e-05
4.37798e-05
4.65822e-05
5.55387e-05
7.27865e-05
9.98471e-05
0.000117398
0.000105284
5.96236e-05
2.47193e-05
1.29338e-07
1.12516e-07
2.45633e-05
5.14042e-05
7.5362e-05
9.72704e-05
0.000114144
0.00012587
0.000133162
0.000137628
0.000140045
0.000140278
0.000138447
0.000134412
0.000128201
0.000121161
0.000113732
0.000104825
9.53332e-05
8.72181e-05
8.02679e-05
7.22139e-05
6.31658e-05
5.42868e-05
4.66987e-05
4.09609e-05
3.78734e-05
4.05675e-05
4.96442e-05
6.83559e-05
9.76664e-05
0.000117935
0.0001067
6.16849e-05
2.50233e-05
1.30638e-07
1.12585e-07
2.41976e-05
4.76878e-05
7.53233e-05
9.87091e-05
0.000116241
0.00012797
0.00013476
0.000136877
0.000137694
0.000136379
0.000133433
0.00012912
0.000123313
0.000115976
0.000108106
9.99342e-05
9.17194e-05
8.36663e-05
7.64907e-05
6.98412e-05
6.21767e-05
5.35922e-05
4.60884e-05
3.99277e-05
3.65323e-05
3.80985e-05
4.49669e-05
6.05181e-05
8.82622e-05
0.000114628
0.000109304
6.25825e-05
2.51902e-05
1.32094e-07
1.12909e-07
2.39672e-05
4.70552e-05
7.19507e-05
9.54847e-05
0.000113512
0.000125149
0.000131807
0.000135133
0.000135431
0.000133387
0.000128584
0.000123347
0.000118316
0.000111846
0.000103556
9.54286e-05
8.78661e-05
8.09613e-05
7.44116e-05
6.89105e-05
6.57051e-05
6.81618e-05
6.36098e-05
5.3265e-05
4.51464e-05
3.88796e-05
4.20752e-05
5.69462e-05
8.15234e-05
0.000111204
0.00011463
6.73575e-05
2.52778e-05
1.34359e-07
1.126e-07
2.36224e-05
4.79643e-05
7.35216e-05
9.76343e-05
0.000115332
0.000125034
0.000130994
0.000133671
0.000134483
0.000131714
0.000125789
0.000119932
0.000113702
0.000108897
9.99673e-05
9.19542e-05
8.47619e-05
7.86753e-05
7.20814e-05
6.70242e-05
6.44191e-05
6.67624e-05
6.27755e-05
5.2777e-05
5.01731e-05
4.67298e-05
4.6599e-05
5.08752e-05
7.02696e-05
0.000102241
0.000116719
7.08532e-05
2.51476e-05
1.36205e-07
1.14179e-07
2.33784e-05
4.71943e-05
7.11029e-05
9.54094e-05
0.000113545
0.000124824
0.000130922
0.000132845
0.000131576
0.000127789
0.000122275
0.000115772
0.000109766
0.000103448
9.68749e-05
8.9927e-05
8.27519e-05
7.58968e-05
7.03928e-05
6.6634e-05
6.41956e-05
6.76943e-05
6.56147e-05
5.6617e-05
5.0964e-05
4.58123e-05
4.45798e-05
4.8986e-05
6.43573e-05
9.48283e-05
0.000118704
6.79274e-05
2.40923e-05
1.34354e-07
1.15237e-07
2.30816e-05
4.70627e-05
7.15853e-05
9.60642e-05
0.000113893
0.00012484
0.000131453
0.000133332
0.000131707
0.000127983
0.000122869
0.000115089
0.000108201
0.000101945
9.59102e-05
8.96605e-05
8.28056e-05
7.55958e-05
6.91998e-05
6.51671e-05
6.75448e-05
6.8114e-05
5.98162e-05
5.27797e-05
4.81117e-05
4.46961e-05
4.36547e-05
4.89165e-05
7.12481e-05
0.000109744
0.000118728
6.43268e-05
2.34317e-05
1.31584e-07
1.17669e-07
2.32242e-05
4.80138e-05
7.32981e-05
9.75788e-05
0.000114958
0.000125972
0.000130691
0.000130953
0.000127632
0.0001243
0.000116133
0.00010909
0.000103284
9.82029e-05
9.32525e-05
8.78501e-05
8.15354e-05
7.44615e-05
6.78712e-05
6.30514e-05
6.19378e-05
5.83456e-05
5.26705e-05
4.90625e-05
4.60542e-05
4.48027e-05
4.81422e-05
6.21157e-05
8.91808e-05
0.000117473
0.000112526
6.10345e-05
2.27855e-05
1.29434e-07
1.17567e-07
2.28652e-05
4.51258e-05
7.26498e-05
9.86062e-05
0.000116723
0.000126086
0.000128579
0.000127972
0.000124106
0.000118689
0.000109889
0.000102579
9.67369e-05
9.23013e-05
8.85268e-05
8.43975e-05
7.89977e-05
7.23025e-05
6.54205e-05
5.94928e-05
5.52827e-05
5.1674e-05
4.87735e-05
4.71452e-05
4.67079e-05
4.88875e-05
5.66591e-05
7.59039e-05
0.000101884
0.000120925
0.00010639
5.87341e-05
2.34007e-05
1.29236e-07
1.20828e-07
2.35603e-05
4.92016e-05
7.51599e-05
0.000101018
0.000117534
0.000125645
0.000128518
0.000127497
0.000121422
0.000111458
0.000102516
9.49661e-05
8.94635e-05
8.6184e-05
8.41944e-05
8.19391e-05
7.80129e-05
7.21464e-05
6.56164e-05
5.95931e-05
5.40854e-05
4.9955e-05
4.78201e-05
4.73675e-05
4.88832e-05
5.36903e-05
6.41331e-05
8.30029e-05
0.000107623
0.000120132
0.000101509
5.85553e-05
2.40293e-05
1.30703e-07
1.20298e-07
2.336e-05
4.80654e-05
7.61689e-05
0.000101143
0.000116455
0.000126282
0.000128386
0.000124703
0.000117009
0.000105147
9.5355e-05
8.79744e-05
8.32077e-05
8.1119e-05
8.07281e-05
8.02412e-05
7.785e-05
7.28188e-05
6.61729e-05
5.93449e-05
5.34883e-05
4.92464e-05
4.69103e-05
4.68101e-05
4.95117e-05
5.60608e-05
6.86232e-05
8.84839e-05
0.000109786
0.000118797
0.000101537
5.804e-05
2.42494e-05
1.31493e-07
1.21281e-07
2.32735e-05
4.54891e-05
7.20868e-05
9.80283e-05
0.000115521
0.000123713
0.000124678
0.000119786
0.000111354
9.94554e-05
8.95527e-05
8.2157e-05
7.79946e-05
7.68479e-05
7.76956e-05
7.88865e-05
7.84642e-05
7.50736e-05
6.9044e-05
6.22329e-05
5.54008e-05
4.98801e-05
4.67992e-05
4.63483e-05
4.92635e-05
5.6354e-05
6.93554e-05
8.91834e-05
0.000110011
0.000117162
9.6777e-05
5.50342e-05
2.41328e-05
1.3259e-07
1.23137e-07
2.36308e-05
4.7964e-05
7.35661e-05
9.94081e-05
0.000116558
0.000124117
0.00012408
0.000118528
0.000106521
9.47057e-05
8.52219e-05
7.87411e-05
7.46702e-05
7.38507e-05
7.55189e-05
7.79021e-05
7.90275e-05
7.71486e-05
7.29918e-05
6.7439e-05
5.92279e-05
5.18108e-05
4.77925e-05
4.66868e-05
4.88458e-05
5.50689e-05
6.72363e-05
8.63552e-05
0.000107158
0.000115686
9.5689e-05
5.35412e-05
2.36509e-05
1.34122e-07
1.24908e-07
2.36954e-05
4.81778e-05
7.53288e-05
0.000101052
0.000117903
0.000125098
0.000124295
0.000117051
0.000105435
9.08524e-05
8.06747e-05
7.51078e-05
7.11939e-05
7.10023e-05
7.35825e-05
7.71906e-05
7.98491e-05
8.01065e-05
7.8597e-05
7.16617e-05
6.19416e-05
5.45593e-05
4.95648e-05
4.74151e-05
4.84695e-05
5.36396e-05
6.47686e-05
8.33599e-05
0.00010511
0.000114956
9.59063e-05
5.48283e-05
2.32795e-05
1.35665e-07
1.25237e-07
2.34606e-05
4.74408e-05
7.39932e-05
0.000100225
0.000116762
0.000123375
0.000121533
0.000111867
9.94019e-05
8.67919e-05
7.70504e-05
7.32107e-05
6.84234e-05
6.86042e-05
7.18179e-05
7.63634e-05
8.00417e-05
8.11363e-05
8.04481e-05
7.4133e-05
6.44656e-05
5.66208e-05
5.0846e-05
4.7851e-05
4.81686e-05
5.28419e-05
6.38763e-05
8.307e-05
0.000105588
0.000115095
9.45355e-05
5.39309e-05
2.28332e-05
1.35759e-07
1.26425e-07
2.33603e-05
4.6361e-05
7.10595e-05
9.69917e-05
0.000115832
0.000122765
0.000119569
0.000110675
9.76157e-05
8.40684e-05
7.32105e-05
6.68916e-05
6.47723e-05
6.59713e-05
6.97675e-05
7.48584e-05
7.92086e-05
8.2087e-05
8.08578e-05
7.37481e-05
6.50622e-05
5.73772e-05
5.1461e-05
4.82134e-05
4.84687e-05
5.34117e-05
6.51194e-05
8.51572e-05
0.00010714
0.000114261
9.20076e-05
5.30387e-05
2.25166e-05
1.3619e-07
1.27139e-07
2.31657e-05
4.45185e-05
7.13579e-05
9.75285e-05
0.000115052
0.000121974
0.000119687
0.000109795
9.57707e-05
8.13107e-05
7.0151e-05
6.42476e-05
6.20059e-05
6.3089e-05
6.70984e-05
7.28493e-05
7.8034e-05
8.05403e-05
7.86272e-05
7.27932e-05
6.51673e-05
5.76796e-05
5.19882e-05
4.90161e-05
4.96297e-05
5.52494e-05
6.8074e-05
8.85345e-05
0.000109013
0.000115121
9.20257e-05
5.19837e-05
2.24725e-05
1.36489e-07
1.28547e-07
2.33605e-05
4.67111e-05
7.3275e-05
9.74617e-05
0.000114307
0.000122066
0.000119511
0.000108103
9.47174e-05
8.0754e-05
7.06157e-05
6.4391e-05
5.91177e-05
5.97736e-05
6.38509e-05
6.99615e-05
7.61856e-05
7.90762e-05
7.75301e-05
7.25062e-05
6.51197e-05
5.7919e-05
5.26373e-05
5.0235e-05
5.15927e-05
5.81257e-05
7.1677e-05
9.17436e-05
0.000109793
0.000112304
8.8456e-05
5.168e-05
2.24501e-05
1.3664e-07
1.274e-07
2.27894e-05
4.25023e-05
6.86581e-05
9.51234e-05
0.000112204
0.000118541
0.000115804
0.000106294
8.89546e-05
7.35752e-05
6.22132e-05
5.62121e-05
5.48754e-05
5.63876e-05
6.03892e-05
6.68027e-05
7.3045e-05
7.71024e-05
7.79537e-05
7.37107e-05
6.64503e-05
5.91705e-05
5.38944e-05
5.17091e-05
5.35375e-05
6.07396e-05
7.4805e-05
9.43615e-05
0.000110616
0.000111658
8.79636e-05
5.1381e-05
2.24286e-05
1.36869e-07
1.27998e-07
2.27968e-05
4.29477e-05
6.90447e-05
9.59648e-05
0.000113114
0.000119191
0.000116052
0.00010432
8.86112e-05
7.35253e-05
6.23112e-05
5.55314e-05
5.27656e-05
5.30943e-05
5.65919e-05
6.31647e-05
7.04465e-05
7.58047e-05
7.78494e-05
7.52703e-05
6.92277e-05
6.22089e-05
5.66172e-05
5.39916e-05
5.53961e-05
6.20931e-05
7.53619e-05
9.3903e-05
0.000109741
0.000110696
8.64949e-05
5.07981e-05
2.25164e-05
1.38184e-07
1.28405e-07
2.28865e-05
4.38549e-05
6.98587e-05
9.64174e-05
0.000113263
0.00011941
0.000116464
0.00010549
9.05034e-05
7.49987e-05
6.29885e-05
5.61824e-05
5.35379e-05
5.38847e-05
5.56925e-05
6.07308e-05
6.76309e-05
7.42695e-05
7.81744e-05
7.75427e-05
7.30185e-05
6.65962e-05
6.07113e-05
5.73226e-05
5.77742e-05
6.33448e-05
7.53443e-05
9.30747e-05
0.000109355
0.000111269
8.6435e-05
4.82965e-05
2.20321e-05
1.37858e-07
1.28615e-07
2.30941e-05
4.66457e-05
7.38439e-05
9.93184e-05
0.00011513
0.00012112
0.00011876
0.000107848
9.28358e-05
7.52746e-05
6.06334e-05
5.36231e-05
5.1055e-05
5.16027e-05
5.43598e-05
5.81004e-05
6.42189e-05
7.16763e-05
7.68541e-05
7.79788e-05
7.52253e-05
6.99724e-05
6.44312e-05
6.06845e-05
6.0434e-05
6.53291e-05
7.69414e-05
9.48291e-05
0.000111989
0.000114678
8.84906e-05
4.76707e-05
2.17969e-05
1.38016e-07
1.28839e-07
2.31448e-05
4.6601e-05
7.07608e-05
9.55754e-05
0.000112845
0.000119841
0.000119208
0.000112059
9.77942e-05
8.02302e-05
6.21634e-05
5.17408e-05
4.82832e-05
4.84516e-05
5.10011e-05
5.38194e-05
5.89687e-05
6.66378e-05
7.32354e-05
7.62442e-05
7.53165e-05
7.15994e-05
6.70156e-05
6.37323e-05
6.37015e-05
6.87991e-05
8.0577e-05
9.79614e-05
0.000113216
0.00011294
8.53759e-05
4.62067e-05
2.1535e-05
1.36947e-07
1.27466e-07
2.30123e-05
4.64658e-05
7.18952e-05
9.61033e-05
0.000111509
0.000119496
0.000117916
0.000111266
9.91643e-05
8.36687e-05
6.53712e-05
5.29976e-05
4.59301e-05
4.54471e-05
4.84384e-05
5.17814e-05
5.4522e-05
6.07371e-05
6.77368e-05
7.23062e-05
7.33245e-05
7.15112e-05
6.87257e-05
6.68843e-05
6.80708e-05
7.41256e-05
8.61378e-05
0.000102065
0.000113906
0.000111839
8.6819e-05
4.84809e-05
2.16833e-05
1.37648e-07
1.27244e-07
2.3171e-05
4.76785e-05
7.45586e-05
9.87195e-05
0.000113938
0.000120583
0.000119492
0.000114046
0.000103431
9.00358e-05
7.42257e-05
6.10152e-05
5.09251e-05
4.3635e-05
4.53549e-05
4.83954e-05
5.11733e-05
5.5512e-05
6.16435e-05
6.73419e-05
7.02874e-05
7.06695e-05
6.99927e-05
7.03537e-05
7.34709e-05
8.0932e-05
9.30994e-05
0.000107317
0.000116186
0.00011184
8.59952e-05
4.93012e-05
2.18426e-05
1.36573e-07
1.26573e-07
2.32026e-05
4.70399e-05
7.41068e-05
9.86928e-05
0.000113807
0.000120799
0.000121043
0.000116461
0.000106283
9.11424e-05
7.43273e-05
6.27497e-05
5.46105e-05
4.9707e-05
4.90663e-05
5.04322e-05
5.18088e-05
5.48689e-05
5.64215e-05
6.20159e-05
6.70077e-05
6.99024e-05
7.1529e-05
7.3721e-05
7.84902e-05
8.69567e-05
9.87655e-05
0.000111154
0.000117791
0.00011125
8.53078e-05
4.85134e-05
2.1978e-05
1.36583e-07
1.25715e-07
2.30756e-05
4.48984e-05
7.09467e-05
9.57586e-05
0.000113163
0.000119638
0.000121198
0.000117194
0.000107937
9.42996e-05
7.82135e-05
6.21838e-05
4.9858e-05
4.22095e-05
4.04344e-05
4.20073e-05
4.38613e-05
4.76694e-05
5.20702e-05
5.66929e-05
6.27742e-05
6.81914e-05
7.25642e-05
7.70732e-05
8.3184e-05
9.19557e-05
0.00010283
0.000113023
0.000117604
0.00011032
8.41606e-05
4.8378e-05
2.20482e-05
1.36958e-07
1.25603e-07
2.32872e-05
4.71061e-05
7.22453e-05
9.71489e-05
0.000113188
0.000120893
0.000122277
0.000118132
0.000109007
9.58645e-05
8.15871e-05
6.82672e-05
5.64065e-05
4.67964e-05
4.16375e-05
4.30194e-05
3.91665e-05
4.04983e-05
4.46303e-05
5.00968e-05
5.67128e-05
6.44084e-05
7.15762e-05
7.84034e-05
8.60542e-05
9.53262e-05
0.000105708
0.000114868
0.000117935
0.000109292
8.26808e-05
4.95106e-05
2.22722e-05
1.3808e-07
1.24818e-07
2.3047e-05
4.5058e-05
7.23764e-05
9.76634e-05
0.00011386
0.000121751
0.000122886
0.000118642
0.000109528
9.80275e-05
8.49523e-05
7.24372e-05
6.19315e-05
5.32748e-05
4.65208e-05
4.12869e-05
3.7641e-05
3.74624e-05
3.99226e-05
4.47524e-05
5.12245e-05
5.93473e-05
6.84126e-05
7.75223e-05
8.68418e-05
9.67732e-05
0.000106763
0.000114644
0.000116679
0.000107139
8.03032e-05
4.88145e-05
2.22071e-05
1.38365e-07
1.24749e-07
2.31612e-05
4.7363e-05
7.51671e-05
9.99909e-05
0.000114653
0.000121953
0.000123036
0.000119242
0.000110452
9.95118e-05
8.72674e-05
7.52989e-05
6.37254e-05
5.48066e-05
4.86844e-05
4.4843e-05
4.29665e-05
4.0955e-05
3.91778e-05
4.18283e-05
4.75246e-05
5.51507e-05
6.48805e-05
7.55058e-05
8.63131e-05
9.71307e-05
0.000107199
0.000114511
0.000115645
0.000105332
7.81252e-05
4.58428e-05
2.17476e-05
1.37887e-07
1.23822e-07
2.27948e-05
4.50056e-05
7.29966e-05
9.80545e-05
0.000115658
0.000123292
0.000124094
0.000121841
0.000114307
0.000103725
9.10451e-05
7.78624e-05
6.3749e-05
5.38874e-05
4.68681e-05
4.25093e-05
4.04877e-05
4.11307e-05
4.18822e-05
4.33946e-05
4.60641e-05
5.19215e-05
6.06948e-05
7.19239e-05
8.41996e-05
9.62445e-05
0.000106936
0.000114248
0.000114957
0.000104114
7.65587e-05
4.40745e-05
2.13156e-05
1.37497e-07
1.23765e-07
2.30406e-05
4.79334e-05
7.62973e-05
9.95093e-05
0.000116334
0.000123714
0.000125218
0.00012219
0.000114403
0.000102488
8.7914e-05
7.56061e-05
6.54291e-05
5.73114e-05
5.09712e-05
4.6564e-05
4.33106e-05
4.13731e-05
4.14677e-05
4.29175e-05
4.56846e-05
5.09247e-05
5.80332e-05
6.79739e-05
8.05191e-05
9.36666e-05
0.000105124
0.000112599
0.000113019
0.000101656
7.40558e-05
4.22411e-05
2.09825e-05
1.36905e-07
1.22521e-07
2.28271e-05
4.58924e-05
7.39697e-05
9.92557e-05
0.000116125
0.000124054
0.000125757
0.000122015
0.000111693
0.000100394
8.84308e-05
7.71852e-05
6.74656e-05
5.95068e-05
5.27392e-05
4.82833e-05
4.39409e-05
4.02194e-05
3.89472e-05
4.02628e-05
4.39167e-05
4.87202e-05
5.56259e-05
6.50595e-05
7.68272e-05
8.98839e-05
0.00010193
0.000109924
0.000110766
9.96135e-05
7.32971e-05
4.51574e-05
2.12192e-05
1.38097e-07
1.2253e-07
2.31922e-05
4.88895e-05
7.80325e-05
0.000102441
0.000117651
0.00012466
0.000124281
0.000120313
0.000112347
0.000100652
8.84761e-05
7.81587e-05
6.91495e-05