/*--------------------------------*- C++ -*----------------------------------*\
  =========                 |
  \\      /  F ield         | OpenFOAM: The Open Source CFD Toolbox
   \\    /   O peration     | Website:  https://openfoam.org
    \\  /    A nd           | Version:  8
     \\/     M anipulation  |
\*---------------------------------------------------------------------------*/
FoamFile
{
    version     2.0;
    format      ascii;
    class       volScalarField;
    location    "1000";
    object      omega;
}
// * * * * * * * * * * * * * * * * * * * * * * * * * * * * * * * * * * * * * //

dimensions      [0 0 -1 0 0 0 0];

internalField   nonuniform List<scalar> 
78750
(
922.981
35.4101
35.411
35.412
35.413
35.4139
35.4149
35.4158
35.4167
35.4176
35.4185
35.4194
35.4203
35.4212
35.422
35.4228
35.4236
35.4244
35.4252
35.426
35.4268
35.4275
35.4284
35.4293
35.4304
35.432
35.435
35.4417
35.4593
35.5098
35.6587
36.0809
37.1242
39.1483
1136.39
1354.36
10.5868
10.5873
10.5879
10.5884
10.589
10.5896
10.5901
10.5907
10.5912
10.5917
10.5923
10.5928
10.5933
10.5937
10.5942
10.5946
10.5951
10.5955
10.5959
10.5963
10.5967
10.5971
10.5976
10.5982
10.5992
10.601
10.6052
10.6152
10.6407
10.7058
10.8637
11.2053
11.8052
1668.84
1354.36
10.5874
10.5884
10.5893
10.5903
10.5913
10.5923
10.5933
10.5942
10.5952
10.596
10.5969
10.5977
10.5985
10.5993
10.6
10.6007
10.6013
10.6019
10.6025
10.603
10.6036
10.6042
10.6051
10.6063
10.6085
10.613
10.6228
10.6444
10.6925
10.7975
11.0091
11.3883
11.9635
1668.88
1354.36
10.5882
10.5897
10.5912
10.5927
10.5941
10.5956
10.597
10.5984
10.5997
10.601
10.6022
10.6033
10.6044
10.6054
10.6063
10.6072
10.608
10.6087
10.6095
10.6102
10.6109
10.6119
10.6131
10.6152
10.6189
10.6262
10.6412
10.6724
10.7374
10.8673
11.1069
11.4997
12.0532
1668.89
1354.36
10.5891
10.5911
10.5932
10.5952
10.5972
10.5991
10.601
10.6028
10.6045
10.6061
10.6076
10.609
10.6103
10.6115
10.6127
10.6137
10.6147
10.6156
10.6165
10.6175
10.6185
10.6198
10.6218
10.625
10.6309
10.6418
10.663
10.7049
10.7865
10.9379
11.1973
11.5945
12.1252
1668.91
1354.36
10.5901
10.5928
10.5955
10.598
10.6005
10.6029
10.6052
10.6073
10.6094
10.6113
10.613
10.6147
10.6162
10.6176
10.619
10.6202
10.6214
10.6225
10.6236
10.6248
10.6262
10.6281
10.6309
10.6356
10.6437
10.6583
10.6855
10.7368
10.8313
10.9968
11.2665
11.6597
12.1695
1668.92
1354.36
10.5913
10.5947
10.598
10.6012
10.6042
10.607
10.6096
10.6121
10.6144
10.6165
10.6185
10.6204
10.6221
10.6237
10.6253
10.6267
10.6281
10.6294
10.6308
10.6324
10.6343
10.6369
10.6407
10.6466
10.6563
10.6733
10.7046
10.7628
10.8673
11.0452
11.3247
11.7168
12.2105
1668.92
1354.36
10.5929
10.5971
10.6011
10.6047
10.6082
10.6113
10.6143
10.6171
10.6196
10.622
10.6242
10.6263
10.6282
10.6301
10.6318
10.6335
10.6351
10.6368
10.6386
10.6408
10.6435
10.6472
10.6525
10.6605
10.6732
10.6947
10.7326
10.7991
10.9126
11.0979
11.3793
11.7594
12.233
1668.93
1354.36
10.5949
10.6
10.6046
10.6088
10.6126
10.6161
10.6194
10.6224
10.6252
10.6278
10.6303
10.6326
10.6347
10.6368
10.6388
10.6408
10.6428
10.6449
10.6473
10.6501
10.6536
10.6582
10.6646
10.6736
10.6874
10.7111
10.752
10.8226
10.9416
11.1332
11.4187
11.7957
12.2584
1668.93
1354.36
10.5976
10.6036
10.6087
10.6133
10.6175
10.6213
10.6249
10.6282
10.6313
10.6342
10.6369
10.6394
10.6419
10.6442
10.6466
10.6489
10.6514
10.6541
10.6573
10.6611
10.6659
10.6721
10.6804
10.692
10.7101
10.7393
10.7873
10.8658
10.9924
11.1889
11.4715
11.8324
12.2753
1668.94
1354.37
10.6008
10.6078
10.6134
10.6184
10.6229
10.627
10.6308
10.6344
10.6378
10.641
10.644
10.6469
10.6497
10.6524
10.6552
10.658
10.6611
10.6644
10.6683
10.6729
10.6786
10.6858
10.6951
10.7085
10.7294
10.7627
10.8157
10.8998
11.0315
11.2308
11.5107
11.8624
12.2936
1668.94
1354.37
10.6044
10.6125
10.6186
10.6239
10.6286
10.6331
10.6372
10.6411
10.6448
10.6483
10.6517
10.655
10.6583
10.6615
10.6648
10.6683
10.6721
10.6763
10.6811
10.6867
10.6936
10.7019
10.713
10.7291
10.7538
10.7919
10.8507
10.9415
11.0793
11.281
11.5535
11.8874
12.3023
1668.94
1354.37
10.6082
10.6174
10.624
10.6295
10.6345
10.6392
10.6437
10.648
10.6521
10.656
10.6599
10.6637
10.6675
10.6713
10.6753
10.6795
10.6841
10.6891
10.6948
10.7014
10.7091
10.7187
10.7319
10.7508
10.7787
10.8198
10.8813
10.9742
11.1136
11.3153
11.5808
11.9008
12.3034
1668.95
1354.37
10.612
10.6222
10.6291
10.6348
10.6401
10.6452
10.65
10.6546
10.6592
10.6636
10.668
10.6724
10.6768
10.6814
10.6861
10.6912
10.6966
10.7026
10.7092
10.7169
10.7261
10.7378
10.7534
10.7754
10.807
10.8536
12.9146
11.0193
11.1595
11.356
11.6068
11.9063
12.2974
1668.94
1354.37
10.6154
10.6264
10.6337
10.6395
10.6451
10.6503
10.6554
10.6604
10.6654
10.6702
10.6751
10.68
10.685
10.6902
10.6955
10.7012
10.7073
10.7139
10.7214
10.7303
10.741
10.7545
12.6441
12.7759
12.8602
10.8865
10.9614
13.0971
11.2118
11.4033
11.6344
11.9067
12.2791
1668.94
1354.37
10.6182
10.6299
10.6375
10.6435
10.6491
10.6545
10.6598
10.665
10.6701
10.6753
10.6805
10.6858
10.6913
10.6969
10.7027
10.7089
10.7156
10.7231
10.7317
10.7421
10.7549
10.7709
10.792
12.8213
12.9575
10.9207
11.0035
13.3146
13.2171
11.4533
11.6631
11.9084
12.2616
1668.94
1354.38
10.6206
10.6329
10.6408
10.647
10.6526
10.6581
10.6634
10.6687
10.674
10.6794
10.6848
10.6903
10.696
10.7019
10.7081
10.7148
10.7223
10.7308
10.7408
10.753
10.768
10.7869
10.8113
12.9683
13.1477
13.0225
13.0617
13.106
11.3199
11.5004
11.6918
11.9154
12.2517
1668.93
1354.38
10.6227
10.6356
10.644
10.6505
10.6562
10.6617
10.6671
10.6725
10.6779
10.6834
10.6889
10.6946
10.7004
10.7066
10.7132
10.7205
10.7287
10.7381
10.7492
12.6603
12.7384
12.784
10.829
12.7968
12.9909
13.1603
13.2681
13.2537
11.3695
11.5429
11.7196
11.9276
12.2503
1668.93
1354.38
10.6245
10.6382
10.6471
10.654
10.6601
10.6659
10.6715
10.677
10.6825
10.6881
10.6938
10.6996
10.7058
10.7123
10.7194
10.7271
10.7357
10.7456
12.6272
12.7069
12.7771
10.8143
10.8448
10.886
10.943
13.0945
13.2785
13.3014
13.3958
11.5783
11.744
11.941
12.2524
1668.93
1354.38
10.6262
10.6406
10.6501
10.6575
10.6641
10.6703
10.6763
10.6822
10.6881
10.694
10.7
10.7063
10.7128
10.7197
10.727
10.735
12.5996
12.6129
10.7665
10.7818
10.8014
12.7149
12.8413
12.975
13.1484
13.3254
13.3958
13.2962
13.4585
11.6084
11.7655
11.9543
12.2568
1668.93
1354.38
10.6277
10.6429
10.6531
10.6611
10.6682
10.6749
10.6814
10.6877
10.6941
10.7005
10.707
10.7136
12.5756
12.5893
12.5978
12.6101
12.6166
10.7633
10.776
10.7917
12.6957
12.8477
12.9972
13.1412
13.2777
13.3839
13.3997
13.3332
13.5452
11.6335
11.7846
11.9679
12.2634
1668.93
1354.38
10.6292
10.6451
10.6561
10.6647
10.6723
10.6795
12.5252
12.5328
10.7001
10.7068
10.7137
10.7207
10.7279
10.7354
12.5969
12.6228
12.645
12.6666
12.7079
12.6949
12.9485
13.206
13.4807
13.6899
13.7462
13.2424
13.2224
13.43
13.5034
11.6551
11.8012
11.9798
12.2694
1668.93
1354.38
10.6307
10.6473
10.6589
10.6681
10.6763
12.5224
12.5308
10.6987
10.7059
10.713
10.7202
10.7276
10.7351
10.743
10.7514
12.631
12.6471
12.681
12.7468
12.7966
10.8342
10.8629
12.8156
13.3258
13.1267
13.2936
13.455
13.5375
13.5599
11.6753
11.8181
11.9931
12.2772
1668.94
1354.38
10.632
10.6493
10.6616
10.6714
12.5281
12.5405
12.5399
10.704
10.7115
10.719
10.7266
12.5809
12.6005
12.6149
12.6131
10.7686
10.779
10.791
10.8051
12.8912
13.1087
13.3047
13.3996
12.9587
11.0339
13.092
13.3591
13.5011
13.543
11.6947
11.8349
12.0073
12.287
1668.94
1354.38
10.6332
10.6513
10.6642
10.6746
10.6839
10.6926
10.7009
10.709
10.7169
10.7248
10.7327
10.7407
10.749
12.6245
12.6339
10.7766
10.7875
10.7999
10.8148
10.8331
10.8566
10.8873
10.9272
10.9797
11.0513
11.149
11.2736
11.419
11.5707
13.7774
11.8514
12.0214
12.2968
1668.94
1354.39
10.6345
10.6532
10.6667
10.6777
10.6875
10.6967
10.7054
10.7138
10.722
10.7302
10.7385
10.7469
10.7555
10.7645
10.774
12.6608
12.7076
12.7506
12.706
12.7511
12.9265
13.3829
13.7324
13.9736
14.1624
14.3198
14.3198
14.1442
13.7871
13.7771
11.8691
12.0375
12.309
1668.94
1354.39
10.6356
10.6549
10.6691
10.6807
10.691
10.7006
10.7096
10.7184
10.727
10.7355
10.7441
10.7528
12.62
12.6372
12.66
12.6937
12.7415
12.7936
12.8251
10.8521
10.878
10.9123
10.9571
12.9371
13.1259
13.4715
13.5332
13.6702
13.7193
13.7912
13.9392
12.0546
12.3226
1668.95
1354.39
10.6366
10.6566
10.6714
10.6836
10.6944
10.7043
10.7137
12.5867
12.6152
12.6311
12.6456
12.6557
12.6649
12.6669
12.6883
12.7224
12.7596
12.7737
10.8398
12.7708
13.1843
13.5628
13.9456
14.197
14.1731
13.4709
13.4605
13.6307
13.7377
13.8104
11.9046
12.0695
12.3328
1668.95
1354.39
10.6378
10.6584
12.5377
12.5946
12.5967
12.5994
12.6122
12.6106
12.6143
12.6193
12.6147
10.7643
10.774
10.7841
12.6768
12.7201
12.7369
10.8319
10.8478
10.8671
10.8917
10.9242
12.8547
12.985
13.2211
13.3859
13.5467
13.6798
13.7592
13.8347
11.9151
12.0795
12.3416
1668.95
1354.39
10.6391
10.6604
12.6105
12.6434
12.6167
12.6035
12.5988
10.7315
10.7411
10.7506
10.7602
10.7701
10.7802
10.7908
10.8018
10.8137
12.6954
12.7278
12.7531
12.7506
10.9002
10.9312
10.9721
11.0274
11.1045
11.2097
13.4027
13.6041
13.7366
11.7863
11.9199
12.0843
12.3459
1668.95
1354.39
10.6405
10.6624
12.6213
12.6471
12.6229
12.6087
12.6096
12.6139
12.6249
12.6371
12.641
10.7759
10.7865
10.7975
10.8092
10.8218
10.8355
12.7203
12.757
12.7822
10.9122
10.9423
10.9807
11.0322
11.1048
11.2066
11.3379
11.4915
11.6472
11.7887
11.9232
12.0878
12.3494
1668.96
1354.39
10.6419
10.6646
12.6333
12.657
12.6367
12.6236
12.6187
12.6227
12.6365
12.6632
12.6865
12.7053
12.724
12.7391
12.7408
10.8302
10.8451
10.8618
12.7543
12.9007
12.9959
13.0451
13.6342
13.767
13.1721
11.2101
11.3394
13.5971
13.7286
13.8356
11.9289
14.1721
12.3568
1668.96
1354.39
10.6433
10.6669
12.5699
12.6485
12.6575
12.6545
12.6523
12.6526
12.6513
12.6587
12.6751
12.7036
12.7194
12.6835
12.6913
12.7081
12.7266
12.7638
12.8521
12.97
13.1024
13.2462
13.2627
13.136
13.1439
13.3871
13.4179
13.6399
13.7667
11.8097
11.943
12.1089
12.371
1668.96
1354.39
10.6448
10.6691
12.574
12.631
12.6531
12.6559
12.6594
12.6652
12.6674
12.681
12.6972
12.7169
12.7373
12.7663
12.7951
12.8064
12.7345
12.7884
12.8737
12.9163
12.9273
13.4304
13.1204
13.1873
13.3699
13.5973
13.5977
13.6794
13.7433
11.8385
11.9679
12.1327
12.3909
1668.97
1354.4
10.6465
12.5467
12.702
12.6693
12.6579
12.6531
12.6531
12.661
12.6754
12.6961
12.7131
12.716
10.811
10.8239
10.8381
10.854
12.7458
12.8246
13.0824
13.2059
12.9376
11.0492
11.1059
13.1647
13.3962
13.5029
13.5435
13.6585
13.8389
13.9634
14.1421
12.1592
12.4123
1668.97
1354.4
10.6479
12.5097
12.6798
12.6654
12.6509
12.6296
10.7464
10.758
10.7694
12.6333
12.6541
12.7002
12.6769
12.7154
12.7434
12.7854
12.8324
12.8769
12.9229
12.9964
13.1231
13.89
14.0994
13.3831
13.2926
13.4328
13.613
13.7445
14.0392
14.1239
14.2302
14.3078
12.4312
1668.98
1354.4
10.6492
10.6752
12.6869
12.701
12.6842
12.6603
12.6031
10.7618
12.6346
12.6946
12.7033
10.8091
12.6904
12.7942
12.7952
12.8988
12.9704
12.9903
12.815
10.9745
11.0244
11.0876
13.137
13.2251
11.3514
13.4316
11.5824
13.7231
13.9877
14.1053
14.2717
14.4273
12.4467
1668.98
1354.4
10.6502
10.6768
12.6086
12.6722
12.6801
12.6809
12.6869
12.7027
12.7187
12.7179
12.6637
10.8142
12.6924
12.8081
12.8866
12.9419
12.9241
10.9104
10.9378
10.9736
12.9163
11.0878
11.1682
11.2628
11.37
11.4875
11.611
14.0065
14.0872
14.0816
14.262
14.3755
12.4593
1668.98
1354.4
10.6512
10.6784
12.6047
12.662
12.6713
12.6634
12.6176
12.63
12.69
12.7265
12.7619
12.7711
12.7029
12.7194
12.7739
12.8169
12.8219
12.9137
13.2714
13.5251
13.8277
14.1859
14.4767
14.4366
13.6002
13.5826
13.6915
13.7969
11.8511
11.961
14.1588
14.4117
12.4594
1668.98
1354.4
10.6523
12.5199
10.7012
10.7187
10.7339
10.7477
10.7609
12.6288
12.6632
12.743
12.7853
12.8256
12.8529
12.7776
12.7903
12.846
12.927
12.9757
13.0037
13.1145
13.1841
13.202
13.1345
13.2335
13.3376
13.5366
13.6885
13.7733
13.9004
14.1464
14.2971
14.4507
12.4554
1668.98
1354.4
10.653
12.5195
12.7181
12.717
12.7003
12.6861
12.64
12.6915
12.7163
12.7368
12.6909
12.7179
12.8406
12.9064
12.821
12.8541
12.9789
13.0795
13.0698
12.9624
12.8959
11.028
11.076
11.1472
11.2502
13.3498
13.5564
11.6895
11.8306
14.0893
12.0718
12.2204
12.4505
1668.98
1354.4
10.6543
10.6836
10.7062
10.7246
10.7406
12.6101
12.6298
12.6391
10.797
10.8111
12.7119
12.7458
12.7378
10.8731
12.7624
12.8055
12.8966
13.1636
12.9889
12.9546
12.9989
13.0859
13.1336
13.1202
11.1819
11.2882
11.4271
13.6074
13.7956
13.9365
12.0159
12.173
12.4141
1668.98
1354.4
10.6557
10.6857
12.6701
12.7235
12.725
12.725
12.7284
12.7459
12.7576
12.7036
12.7202
12.7161
12.734
12.7684
12.8031
12.8368
12.8709
12.9002
12.944
12.9841
13.0178
13.0529
13.1145
13.2864
13.8531
14.1986
14.2868
13.772
13.8079
13.9326
14.1465
14.2875
12.3994
1668.98
1354.4
10.6574
10.6883
12.6634
12.6993
12.6878
12.6707
10.7787
10.7938
10.8092
10.8251
10.8417
12.7332
12.7805
12.8265
12.8628
12.892
12.9212
12.9555
13.0011
13.0558
13.1103
13.1494
13.167
13.1755
13.2409
13.3557
13.5002
13.5552
11.7004
11.8509
11.9869
12.1494
12.4026
1668.98
1354.41
10.6591
10.6906
12.6959
12.7145
12.6715
10.7675
10.7831
10.7989
12.675
10.8318
12.7154
12.7512
12.7953
12.8333
12.8661
12.8943
12.9204
12.9519
12.9932
13.0461
13.1083
13.1705
13.2235
13.26
13.2893
13.3368
13.4318
11.5947
11.7393
11.8706
12.0017
12.1684
12.4259
1668.99
1354.41
10.6605
12.5713
12.7341
12.6945
10.7543
10.7708
12.6404
12.6653
12.6906
10.838
12.7296
12.7677
12.8037
12.8388
12.868
12.8995
12.9341
12.9751
13.0161
13.0523
13.0941
13.1514
13.2147
13.2717
13.3372
13.4402
13.5604
11.6725
11.7952
11.9127
12.0382
12.2028
12.4518
1668.99
1354.41
10.6613
10.6937
12.6805
10.7386
10.7564
12.6901
12.7105
10.8067
10.8244
12.7341
12.7915
12.8235
12.8322
12.8492
12.8859
12.9396
13.0101
13.0972
13.2084
13.3293
13.4181
13.4613
13.4789
13.4958
13.5275
13.5917
13.6894
13.8044
14.0118
14.1157
14.2492
12.227
12.4682
1669
1354.41
10.6617
10.6943
10.7194
10.7399
12.6187
10.775
10.7921
10.8096
10.828
12.7252
12.784
12.817
12.8287
12.861
12.9144
12.9735
13.034
13.0978
13.1699
13.2496
13.3341
13.4068
13.4485
13.4742
13.522
13.5964
13.6929
13.808
13.9433
14.0404
12.0904
12.2473
12.482
1669
1354.41
10.6618
12.6479
12.6225
12.6235
12.6315
12.6491
12.6732
12.7368
10.8311
12.738
12.7915
12.8129
12.8264
12.8685
12.9398
13.0156
13.0837
13.1418
13.1961
13.2534
13.3143
13.3738
13.4316
13.5042
13.6007
13.7012
13.7888
13.8693
13.9678
14.1465
14.2847
14.3741
12.4888
1669
1354.41
10.6617
10.6947
12.7374
12.7591
12.7411
12.7297
12.7258
10.8143
12.7088
12.8038
12.896
12.9585
12.905
12.93
12.9983
13.0795
13.1518
13.205
13.2403
13.2674
13.2991
13.3492
13.422
13.5021
13.6102
13.7177
13.8127
13.895
13.9958
14.2263
14.4033
14.5514
12.4894
1669
1354.41
10.6617
10.6948
10.7206
10.742
10.7609
10.7791
10.7976
10.8169
10.8378
12.7344
12.8144
13.0665
12.9328
12.9613
13.0497
13.1514
13.2425
13.3098
13.3484
13.3613
13.3633
13.3786
13.4219
13.515
13.6282
13.7396
13.8361
13.9095
13.9795
14.0966
14.2563
12.259
12.4906
1669
1354.41
10.6618
10.695
10.7211
10.7427
10.762
10.7806
10.7995
12.6867
12.7508
12.8001
12.8039
10.9186
12.8449
12.9363
13.0529
13.1801
13.2986
13.3908
13.4487
13.4709
13.464
13.4439
13.4448
13.479
13.5462
13.6443
13.7644
13.8967
14.0372
14.1431
14.2446
12.2663
12.4979
1669.01
1354.41
10.6619
10.6952
12.6195
12.5972
10.7628
10.7817
12.6578
12.7359
12.8141
12.8857
12.9169
12.9273
12.9567
12.9919
13.0736
13.1971
13.3281
13.4397
13.5176
13.5567
13.5586
13.5346
13.5056
13.5027
13.5505
13.6393
13.7545
13.8898
14.0361
14.1461
14.241
12.2797
12.5095
1669.01
1354.41
10.6618
12.8033
12.8818
12.8181
12.7844
12.7781
12.8095
12.864
12.9298
12.9915
12.8745
12.9991
13.0825
13.0518
13.096
13.2048
13.3394
13.4633
13.5578
13.6143
13.6319
13.6179
13.59
13.5736
13.5905
13.6536
13.7534
13.87
13.9786
12.0206
12.1378
12.2944
12.5215
1669.01
1354.41
10.6617
10.6951
10.7215
12.6917
12.6939
10.783
10.8033
12.7362
10.8501
10.8779
10.9085
10.9405
12.8769
12.9665
13.0648
13.1923
13.3366
13.471
13.5775
13.6468
13.6768
13.6753
13.6572
13.6449
13.6591
13.7107
13.7952
13.9003
14.0209
14.1315
14.2593
12.3118
12.5343
1669.02
1354.42
10.6617
12.5684
12.6251
12.6478
12.6397
12.6546
12.668
10.8265
12.7189
12.8153
12.8976
12.9654
13.0176
13.0655
13.1142
13.2171
13.3543
13.4912
13.6035
13.6795
13.717
13.7223
13.7108
13.7035
13.7194
13.7685
13.8487
13.9515
14.0595
14.1664
14.285
12.3254
12.544
1669.02
1354.42
10.6617
12.8475
12.6765
12.6777
12.6722
12.6833
12.7339
12.6885
12.7604
12.8782
12.9769
13.0436
13.0409
12.948
12.9873
13.132
13.3161
13.4916
13.6336
13.7306
13.7814
13.7926
13.7801
13.7666
13.7724
13.8092
13.8761
13.9661
14.0693
14.1825
14.3096
12.3276
12.5451
1669.02
1354.42
10.6616
12.7241
12.6211
12.7439
12.7494
12.7572
12.7681
12.7229
12.8584
13.1724
13.4363
13.6992
13.8436
13.7567
13.2418
13.1798
13.3214
13.5059
13.6732
13.7983
13.8721
13.8971
13.8868
13.8624
13.8482
13.8601
13.9007
13.9638
14.0406
14.1329
14.2801
14.6655
12.5446
1669.02
1354.42
10.6617
10.6949
10.7207
10.7422
10.7617
10.7811
10.8015
12.6936
12.8942
12.9636
12.9334
13.4294
13.7583
13.9474
13.8358
13.3246
13.3272
13.4894
13.6754
13.832
13.9408
13.994
13.9996
13.9753
13.9461
13.9346
13.9517
14.0039
14.1165
14.3492
14.5929
14.8879
12.5453
1669.02
1354.42
10.6619
10.695
12.6299
12.5994
10.7611
10.7801
10.8001
10.822
10.8472
10.8771
12.8881
13.0269
13.6302
14.0167
13.9411
13.3314
13.2815
13.4388
13.6432
13.8285
13.9711
14.0635
14.098
14.0913
14.0635
14.0374
14.028
14.0414
14.0823
14.1783
14.3207
14.5169
12.5483
1669.03
1354.42
10.6622
10.6951
12.7303
12.7148
12.6205
10.7788
12.6606
12.6953
12.7209
10.872
12.7812
12.9407
13.1095
13.8613
14.1718
14.0501
13.4352
13.4075
13.5785
13.783
13.9566
14.0769
14.1512
14.172
14.1595
14.1322
14.1075
14.0977
14.1113
14.1628
12.1796
12.3346
12.5539
1669.03
1354.42
10.6625
10.6953
10.7205
10.7411
10.7597
10.7778
12.6677
12.7045
12.7189
10.8668
10.8997
10.9399
10.9876
13.0957
13.9899
14.2819
14.1486
13.5453
13.5292
13.6958
13.8899
14.0519
14.1549
14.2136
14.2245
14.2059
14.1771
14.1577
14.1597
14.1954
12.1883
12.3432
12.5607
1669.03
1354.42
10.6627
10.6954
10.7206
10.7412
10.7595
10.7773
12.7474
12.8144
12.8719
12.9068
12.7967
10.9292
10.9745
11.027
11.0835
11.1395
11.1922
11.2405
13.2718
13.561
13.8065
14.0001
14.1378
14.2137
14.2496
14.2508
14.225
14.1949
14.18
14.1929
12.1926
12.3478
12.5636
1669.03
1354.42
10.6628
12.6975
12.5969
12.5988
10.7595
12.6441
12.7551
12.824
12.8973
12.9779
13.0401
12.8744
12.873
12.9362
13.2692
14.3087
14.5617
14.4116
14.1946
13.66
13.6895
13.8806
14.0623
14.1882
14.2464
14.2579
14.2419
14.2118
14.1919
14.2042
12.1962
12.3504
12.5649
1669.03
1354.42
10.6628
10.6956
12.5723
12.6183
12.6376
12.6645
12.7458
12.7765
12.8003
12.7493
12.8271
12.9968
13.1118
13.0199
12.977
11.1051
13.1261
13.3149
13.4543
13.4816
13.5763
13.7663
13.9618
14.1153
14.2105
14.2481
14.2433
14.2235
14.2145
14.2453
14.348
12.3529
12.5659
1669.03
1354.42
10.6634
12.706
12.7705
12.7432
12.7448
12.749
12.7634
12.7584
12.7019
12.7743
12.9023
13.0946
13.55
13.9078
14.1924
14.2165
13.3712
13.2347
13.3258
13.4057
13.4857
13.6393
13.8336
14.0145
14.1442
14.2136
14.2334
14.2229
14.2145
14.2368
14.3035
12.3541
12.5668
1669.03
1354.42
10.6639
10.6973
10.7228
10.7436
12.6712
12.7109
12.7338
12.7457
12.7092
12.782
12.9059
13.2157
13.4321
13.7351
14.1014
14.5186
14.7186
14.5028
13.5708
13.4199
13.5063
13.599
13.7624
13.9309
14.0708
14.1629
14.2062
14.215
14.2121
14.2348
14.334
14.7097
12.567
1669.04
1354.43
10.665
12.7543
12.8081
12.6372
10.7635
10.7812
12.6784
10.8181
10.8386
10.8613
10.8873
10.9172
12.861
13.0345
13.2016
13.4628
13.6233
14.5292
14.6763
14.4585
13.6807
13.5724
13.6721
13.835
13.9937
14.109
14.1769
14.2084
14.223
14.254
14.386
14.8841
12.5698
1669.04
1354.43
10.666
10.7001
10.7259
12.6032
10.7652
10.7828
10.8007
10.8196
10.84
10.8628
12.7595
12.8599
13.0368
13.37
13.6781
13.9446
14.1563
14.2868
14.3362
14.2898
14.0861
13.9274
13.7928
13.8381
13.9586
14.0775
14.1594
14.2049
14.2285
14.2565
14.3223
14.5238
12.5747
1669.04
1354.43
10.6667
12.6127
12.5975
12.6741
10.7667
10.7847
10.8026
10.8211
12.7123
12.7645
12.8332
12.9194
13.0516
13.3035
13.559
13.8336
14.0001
14.0088
13.8221
13.8373
13.942
13.932
13.8218
13.8402
13.9326
14.0398
14.1269
14.1882
14.2295
14.2669
14.3217
12.3687
12.58
1669.04
1354.43
10.6676
10.7021
10.7281
10.7492
10.7681
10.786
12.6701
12.7171
12.7608
12.8225
12.9262
13.0546
13.1344
13.1859
13.2758
13.5806
13.7729
13.7468
13.4465
13.3498
13.4403
13.5522
13.6468
13.7571
13.8825
14.0011
14.0965
14.1681
14.2262
14.2865
14.3747
12.3784
12.5866
1669.04
1354.43
10.6681
12.6535
12.7885
12.7397
12.6327
10.7872
12.6882
12.7235
12.7404
10.8651
10.8888
13.0757
13.1408
12.9246
13.0332
13.0631
13.3445
13.8102
14.0528
14.145
14.1477
14.0975
14.0096
13.8833
13.8969
13.9883
14.0813
14.1574
14.2214
14.2894
14.3727
12.3831
12.5894
1669.05
1354.43
10.6687
12.6547
12.8005
12.7828
12.7457
12.6945
12.7764
12.8371
12.8802
12.9076
12.7943
12.7971
10.9431
10.9744
11.0099
11.0513
11.1006
13.2118
13.5856
13.8666
13.9996
14.1052
14.0758
13.9329
13.9148
13.9763
14.0645
14.1463
14.2235
14.3201
14.5057
15.0392
12.5884
1669.05
1354.43
10.6694
12.5536
12.7166
12.7217
12.7186
12.7422
12.7538
12.7669
10.8461
10.8673
10.8903
10.9155
10.9429
12.8812
12.9583
13.0487
13.1216
13.1397
13.1566
13.2677
13.4533
13.6643
13.7909
13.8227
13.8619
13.9447
14.0428
14.1327
14.2128
14.2957
14.4175
14.6983
12.5839
1669.05
1354.43
10.6703
10.7059
10.7327
12.6053
12.6403
12.6607
12.6812
12.7716
12.7308
12.7423
12.7884
12.8523
12.8924
12.9533
13.0443
13.1904
13.3029
13.3229
13.2438
11.2177
11.2895
11.372
11.4614
13.5663
13.7305
13.8768
14.0085
14.1197
14.2172
14.3236
14.492
14.7849
12.5753
1669.05
1354.43
10.6717
12.5826
12.7345
12.7474
12.7413
12.7615
12.7961
12.836
12.862
12.7865
12.8068
12.84
12.8662
12.8878
12.9115
12.9914
13.1061
13.2437
13.339
13.4742
14.1292
14.3529
14.3532
13.7711
13.7202
13.8444
13.9894
14.1172
14.2308
14.3513
14.5147
14.7023
12.5673
1669.05
1354.44
10.6733
12.5536
10.7371
10.7591
10.7784
10.7965
12.7123
10.8328
12.72
12.7578
12.7844
12.8172
10.9473
10.9764
11.007
12.935
13.0074
13.0852
13.1548
13.2328
13.4297
13.7306
13.8495
13.6103
13.6266
13.7766
13.9477
14.0992
14.2297
14.3636
14.5608
14.819
12.5606
1669.05
1354.44
10.6754
10.7127
10.7404
10.7626
12.6415
12.6585
10.8181
12.7078
12.7534
12.7839
12.7857
12.7995
12.8305
12.8733
12.9237
12.9891
13.0662
13.1423
13.2059
13.2617
13.3872
13.5803
13.8226
13.8343
13.6683
13.7368
13.9059
14.0728
14.2089
14.3194
14.4224
14.4806
12.5542
1669.05
1354.44
10.6781
10.7164
12.7226
12.7419
12.7537
12.7737
12.8131
12.8618
12.9192
12.9604
12.864
12.8757
12.9196
12.9702
13.0256
13.0897
13.163
13.2372
13.3011
13.3467
13.3769
13.4705
13.6076
13.7221
13.8395
13.8096
13.9155
14.0706
14.2081
14.3214
14.4377
14.5719
12.5519
1669.05
1354.44
10.6815
10.7212
10.7505
12.6619
12.7123
12.7736
12.8181
12.8359
12.7578
12.782
12.8515
12.933
13.015
13.0925
13.1639
13.2309
13.2962
13.3583
13.4119
13.448
13.4604
13.4545
13.464
13.5119
13.647
13.7465
13.8949
14.0641
14.2105
14.3357
14.4698
14.6188
12.5503
1669.05
1354.44
10.6854
12.5913
12.7137
12.7208
12.7318
12.7741
12.8209
12.8596
12.8042
12.8632
12.969
13.0911
13.2095
13.312
13.3939
13.457
13.5061
13.5453
13.5758
13.5928
13.5887
13.5614
13.5198
13.5133
13.5727
13.6827
13.8572
14.0416
14.1946
14.3225
14.4643
14.568
12.548
1669.05
1354.44
10.69
10.7331
12.7017
12.7344
12.7572
12.7896
12.8173
12.8486
12.8074
12.8791
13.0082
13.1623
13.3174
13.457
13.5718
13.6586
13.7185
13.756
13.7774
13.7832
13.77
13.734
13.6815
13.6363
13.633
13.7119
13.8613
14.0322
14.1767
14.3032
14.3864
12.3219
12.5482
1669.05
1354.44
10.695
10.74
12.6679
12.717
12.7391
12.7718
12.7935
12.7555
12.8039
12.9105
13.0653
13.246
13.4294
13.5971
13.7379
13.8464
13.9216
13.9671
13.9888
13.9908
13.973
13.9339
13.8781
13.8222
13.7965
13.8307
13.9246
14.0489
14.1795
14.2966
14.4262
14.6
12.5484
1669.05
1354.45
10.7002
10.7468
10.7799
10.8057
10.8284
10.8504
10.8731
10.8973
12.8237
12.924
13.0829
13.2798
13.4851
13.6762
13.8394
13.9679
14.0602
14.1188
14.1491
14.1556
14.1407
14.1057
14.0552
14.0023
13.9711
13.982
14.0384
14.1196
14.207
14.3093
14.438
14.5587
12.5557
1669.05
1354.45
10.7047
10.7527
10.7866
10.813
10.8364
12.7695
10.8834
12.7831
12.8398
12.9296
13.0841
13.289
13.5098
13.7183
13.8972
14.0387
14.1431
14.2135
14.2542
14.269
14.2612
14.2331
14.1914
14.1483
14.1219
14.1223
14.1513
14.1961
14.2476
14.3089
14.3938
12.3433
12.5644
1669.05
1354.45
10.7086
10.7579
10.7925
10.8194
10.8435
12.7709
10.8928
10.9203
12.8831
12.9493
13.0837
13.2934
13.5277
13.7496
13.9384
14.0878
14.1996
14.2762
14.3242
14.3502
14.3574
14.3456
14.3162
14.2789
14.2491
14.2381
14.2446
14.262
14.2897
14.3497
14.5065
14.9981
12.5677
1669.06
1354.45
10.7119
10.7624
10.7978
10.8254
10.8501
10.8749
10.9017
12.8366
12.9661
12.9852
13.0759
13.2926
13.5462
13.7866
13.9869
14.141
14.2515
14.3221
14.361
14.3795
14.3868
14.3875
14.381
14.3661
14.346
14.3285
14.3183
14.3154
14.3225
14.3525
14.4416
14.6589
12.5711
1669.06
1354.45
10.7143
10.7659
10.8021
10.8303
10.8555
10.8811
12.8705
13.1641
13.3666
13.4378
13.2102
13.3414
13.5905
13.8451
14.0612
14.2287
14.3459
14.4136
14.4388
14.4413
14.4347
14.4258
14.4155
14.4046
14.3941
14.3818
14.3665
14.3519
14.3468
14.3668
14.4299
14.5015
12.5729
1669.06
1354.45
10.7162
12.6569
12.797
12.7922
12.7922
12.7815
12.9174
10.9463
10.9782
11.008
13.0428
13.2954
13.5978
13.8917
14.1438
14.3406
14.4776
14.5547
14.5745
14.5531
14.5124
14.477
14.4544
14.4399
14.4258
14.411
14.3945
14.3766
14.3639
14.3684
14.3964
12.3575
12.5725
1669.06
1354.45
10.7177
10.7713
12.7046
12.7433
10.8648
10.8915
10.9208
12.8521
12.915
12.9711
13.0685
13.2953
13.6097
13.9367
14.2292
14.4635
14.6343
14.7407
14.7793
14.7577
14.6949
14.6146
14.5441
14.4953
14.4655
14.4445
14.4254
14.4074
14.3973
14.4075
14.4517
14.4834
12.5639
1669.06
1354.46
10.7193
12.7388
12.7978
12.7712
10.8694
10.8966
10.9266
10.9597
12.8826
11.0249
12.9935
13.2251
13.563
13.9318
14.2668
14.5416
14.754
14.9027
14.9832
14.993
14.941
14.8488
14.7408
14.6416
14.5639
14.5067
14.4632
14.4324
14.4199
14.4363
14.4921
14.5062
12.5488
1669.06
1354.46
10.7211
12.6562
10.8164
12.7426
10.8746
10.9026
12.8326
12.9028
13.0582
13.1339
13.1571
13.2905
13.5765
13.9423
14.2966
14.5974
14.8379
15.0182
15.1351
15.1836
15.1662
15.0935
14.9851
14.8644
14.7521
14.6588
14.5854
14.5304
14.4993
14.5033
14.55
14.5685
12.5479
1669.06
1354.46
10.7231
12.7092
12.7876
12.793
12.7784
12.9151
13.0165
12.9418
13.1227
13.2861
13.3788
13.3941
13.6086
13.9482
14.3069
14.6255
14.8855
15.0837
15.2173
15.281
15.2786
15.218
15.1171
14.9966
14.8749
14.7653
14.6762
14.6104
14.5699
14.559
14.576
14.5539
12.5499
1669.06
1354.46
10.7252
12.6525
10.8239
10.8558
10.8847
12.8276
10.948
10.9856
11.0248
11.0607
11.0899
13.1153
13.4543
13.8631
14.2679
14.6226
14.922
15.157
15.3199
15.4072
15.4189
15.3636
15.2584
15.1296
15.003
14.8921
14.7973
14.715
14.648
14.6034
14.5702
14.4791
12.5438
1669.06
1354.46
10.7281
10.7866
10.8278
10.8602
10.8899
12.8549
10.9557
12.8994
12.9929
13.0165
11.1108
13.1149
13.3878
13.7691
14.1813
14.5744
14.917
15.2014
15.4197
15.5637
15.6266
15.6102
15.522
15.3816
15.2186
15.0603
14.9207
14.8037
14.7148
14.6562
14.6032
14.4949
12.5347
1669.06
1354.46
10.7326
12.705
12.7843
12.8034
12.8346
12.8783
12.8494
12.9684
13.123
13.1768
13.1048
13.1253
13.3393
13.7142
14.141
14.5513
14.9164
15.2282
15.4855
15.6814
15.8054
15.8503
15.8135
15.6963
15.518
15.3137
15.119
14.9551
14.8265
14.7263
14.6153
14.4634
12.5366
1669.06
1354.46
10.7374
10.7956
12.7931
12.8195
12.8451
12.8754
12.8791
13.0403
13.3189
13.573
13.7081
13.6747
13.5775
13.8002
14.1855
14.5974
14.9775
15.3039
15.5725
15.7796
15.9143
15.9687
15.9547
15.8704
15.727
15.5436
15.3424
15.1448
14.9566
14.7742
14.5821
12.3197
12.5596
1669.07
1354.47
10.742
10.7988
12.7725
12.8222
12.842
12.8743
12.902
13.1687
13.436
13.8301
14.2065
14.404
14.3764
13.855
14.0954
14.5392
14.958
15.2967
15.5695
15.7756
15.9111
15.9653
15.9528
15.8705
15.7341
15.5664
15.3809
15.1821
14.9864
14.8078
14.7171
15.0691
12.5972
1669.08
1354.47
10.7445
10.8011
12.7306
12.7995
12.7981
10.9214
10.9489
10.9814
11.0229
11.0772
13.1203
13.3191
13.435
13.5433
13.8313
14.2381
14.6717
15.0792
15.4221
15.674
15.8326
15.8918
15.8894
15.8217
15.7039
15.5494
15.3676
15.1661
14.9646
14.7562
14.5722
12.4184
12.6259
1669.08
1354.47
10.7462
10.8028
10.8405
10.8701
10.8962
10.9205
10.9441
12.9297
11.0002
11.0408
11.0941
13.0893
13.2327
13.3967
13.569
13.8985
14.2967
14.6897
15.0392
15.3225
15.525
15.6425
15.6808
15.6582
15.5855
15.472
15.3177
15.1299
14.9347
14.7554
14.6629
15.023
12.644
1669.08
1354.47
10.7475
10.8046
10.8428
10.8726
10.8982
10.9215
10.9438
12.9032
10.9894
12.9166
13.0321
13.1469
13.2177
13.28
13.4077
13.6428
13.9682
14.3397
14.6949
14.9942
15.2266
15.388
15.4775
15.4999
15.4637
15.3773
15.2511
15.0974
14.9336
14.7853
14.7846
15.3001
12.6464
1669.09
1354.47
10.7485
10.8068
10.8462
10.8767
10.9024
10.9253
10.9465
10.9673
10.9885
12.9282
13.1076
13.5467
13.7951
13.8449
13.316
13.3154
13.562
13.9211
14.315
14.6781
14.971
15.1812
15.3115
15.3698
15.3655
15.3085
15.209
15.0823
14.9368
14.7951
14.6787
14.692
12.6451
1669.09
1354.47
10.7496
10.8098
10.851
10.8827
10.9091
10.9324
10.9538
10.9743
10.9941
12.9142
12.9916
13.0283
13.1485
13.637
13.7484
13.2621
13.2114
13.3786
13.6839
14.0942
14.5036
14.8406
15.0776
15.2166
15.2726
15.264
15.2001
15.0986
14.98
14.8575
14.7402
14.6102
12.6321
1669.08
1354.47
10.7512
10.8138
10.8573
10.8905
10.9178
10.9418
10.9637
10.9847
12.9114
12.9926
13.0661
13.1264
13.202
13.2715
13.32
13.3498
13.3998
13.4892
13.6326
13.7931
14.0208
14.3791
14.7233
14.9877
15.1495
15.2142
15.2036
15.1502
15.0594
14.9527
14.8332
14.673
12.6116
1669.08
1354.47
10.7551
10.8206
10.8662
10.9007
12.824
12.8875
12.969
13.0635
13.1598
13.269
13.3288
13.1378
13.117
13.1566
13.2061
13.2489
13.2866
13.3123
13.3428
13.4189
13.5578
13.8108
14.1853
14.5697
14.8818
15.0854
15.1844
15.1894
15.1496
15.0585
14.9302
14.7448
12.5864
1669.08
1354.48
10.7607
10.8294
10.8769
10.9126
10.9418
12.873
12.9448
12.9951
12.9504
13.0005
13.0851
13.211
13.3672
13.5299
13.6695
13.7567
13.7782
13.7421
13.662
13.5899
13.5275
13.533
13.699
14.0743
14.4976
14.8543
15.0846
15.1875
15.1974
15.1419
15.0134
14.798
12.5718
1669.08
1354.48
10.7677
10.8396
10.8888
10.9255