/*--------------------------------*- C++ -*----------------------------------*\
  =========                 |
  \\      /  F ield         | OpenFOAM: The Open Source CFD Toolbox
   \\    /   O peration     | Website:  https://openfoam.org
    \\  /    A nd           | Version:  8
     \\/     M anipulation  |
\*---------------------------------------------------------------------------*/
FoamFile
{
    version     2.0;
    format      ascii;
    class       volScalarField;
    location    "1000";
    object      p_rgh;
}
// * * * * * * * * * * * * * * * * * * * * * * * * * * * * * * * * * * * * * //

dimensions      [1 -1 -2 0 0 0 0];

internalField   nonuniform List<scalar> 
78750
(
0.0710706
0.0710719
0.0710727
0.0710729
0.0710728
0.0710721
0.0710709
0.0710691
0.0710668
0.0710639
0.0710604
0.0710563
0.0710516
0.0710463
0.0710404
0.0710339
0.0710267
0.071019
0.0710107
0.0710017
0.0709923
0.0709822
0.0709714
0.0709597
0.0709471
0.0709333
0.0709178
0.0709002
0.0708766
0.0708395
0.0707678
0.0705762
0.0701635
0.0694255
0.0684883
0.071085
0.0710842
0.0710832
0.0710817
0.0710799
0.0710777
0.0710751
0.071072
0.0710684
0.0710643
0.0710598
0.0710548
0.0710494
0.0710436
0.0710374
0.0710309
0.0710241
0.071017
0.0710097
0.0710022
0.0709945
0.0709865
0.0709783
0.0709701
0.0709617
0.0709521
0.0709394
0.0709178
0.0708741
0.0707669
0.0705072
0.0698937
0.068602
0.0664661
0.0638135
0.0710991
0.0710942
0.0710888
0.0710829
0.0710766
0.0710699
0.0710628
0.0710553
0.0710474
0.0710392
0.0710308
0.0710221
0.0710132
0.0710042
0.070995
0.0709859
0.0709767
0.0709676
0.0709586
0.0709498
0.070941
0.0709322
0.0709232
0.0709138
0.0709016
0.0708822
0.0708488
0.0707815
0.0706363
0.0703164
0.069627
0.0682673
0.06592
0.062563
0.0587074
0.0711313
0.0711189
0.071106
0.0710927
0.0710789
0.0710649
0.0710507
0.0710365
0.0710221
0.0710079
0.0709938
0.0709798
0.0709662
0.0709528
0.0709398
0.0709272
0.0709148
0.070903
0.0708923
0.0708811
0.0708691
0.0708577
0.0708453
0.0708297
0.0708068
0.0707686
0.0706981
0.0705563
0.0702633
0.0696605
0.068472
0.0663324
0.0629618
0.0584824
0.0535388
0.0711647
0.0711412
0.0711173
0.071093
0.0710687
0.0710444
0.0710204
0.0709969
0.0709738
0.0709515
0.0709299
0.0709089
0.0708897
0.0708709
0.0708518
0.0708342
0.0708177
0.0708019
0.0707867
0.0707716
0.0707564
0.07074
0.0707203
0.0706932
0.070651
0.0705787
0.0704456
0.0701891
0.0696876
0.0687191
0.0669499
0.0639978
0.0596605
0.0541891
0.0483099
0.0712152
0.0711761
0.0711371
0.0710983
0.0710603
0.0710232
0.0709873
0.0709528
0.0709197
0.0708882
0.0708582
0.0708307
0.0708039
0.0707778
0.070754
0.0707315
0.0707102
0.0706899
0.0706702
0.0706506
0.07063
0.0706063
0.070576
0.0705323
0.0704615
0.070342
0.070126
0.069728
0.0689793
0.0676157
0.0652648
0.061542
0.0563354
0.0499515
0.0431282
0.0712667
0.0712062
0.0711473
0.0710902
0.0710353
0.070983
0.0709333
0.0708862
0.0708418
0.0707998
0.0707611
0.0707241
0.0706885
0.0706559
0.070625
0.0705957
0.0705679
0.070541
0.0705144
0.070487
0.0704569
0.0704211
0.0703745
0.0703073
0.0702045
0.0700346
0.0697417
0.0692007
0.0682035
0.0664268
0.0634565
0.0589265
0.0528331
0.0455681
0.0378951
0.0713344
0.0712443
0.0711599
0.0710807
0.0710066
0.0709372
0.0708724
0.0708118
0.0707551
0.0707021
0.0706532
0.0706067
0.0705622
0.0705212
0.0704822
0.070445
0.070409
0.0703734
0.0703371
0.070298
0.0702533
0.0701976
0.070123
0.0700158
0.0698582
0.0696054
0.0691776
0.0684261
0.0671165
0.064903
0.0613563
0.0561282
0.0493544
0.0413428
0.0327467
0.0714045
0.071274
0.0711586
0.0710541
0.0709585
0.0708704
0.0707887
0.0707129
0.0706423
0.0705771
0.0705157
0.0704571
0.0704028
0.0703511
0.0703016
0.0702535
0.070206
0.0701579
0.0701073
0.0700514
0.0699862
0.0699057
0.0698004
0.0696576
0.0694545
0.0691433
0.0686123
0.0676958
0.066123
0.0635014
0.0593637
0.0533814
0.0458002
0.0369613
0.0275307
0.0714924
0.0713057
0.0711534
0.0710221
0.0709037
0.0707956
0.070696
0.0706037
0.0705177
0.070438
0.0703625
0.0702904
0.0702227
0.0701577
0.0700946
0.0700322
0.069969
0.069903
0.069831
0.0697491
0.0696514
0.0695296
0.0693715
0.0691646
0.0688706
0.0684186
0.0676858
0.0664897
0.0645456
0.0614494
0.0567415
0.0501686
0.0421031
0.0326785
0.0223882
0.0715932
0.0713331
0.071139
0.0709805
0.0708389
0.07071
0.0705912
0.0704809
0.0703785
0.0702817
0.0701892
0.070102
0.0700182
0.0699369
0.0698569
0.0697768
0.0696946
0.0696077
0.0695123
0.0694038
0.0692755
0.0691183
0.06892
0.0686626
0.068294
0.067716
0.0668
0.0653454
0.0630535
0.0595121
0.0542614
0.0471051
0.0384546
0.0283363
0.0172466
0.0717231
0.0713723
0.0711272
0.0709394
0.070775
0.0706242
0.0704847
0.0703542
0.070232
0.0701152
0.0700029
0.0698955
0.069791
0.0696882
0.0695856
0.0694812
0.0693724
0.069256
0.0691277
0.0689817
0.0688107
0.0686061
0.0683564
0.0680227
0.0675363
0.0667933
0.065652
0.0638937
0.0612025
0.05717
0.0513882
0.0438024
0.0348435
0.0242037
0.0122318
0.0718887
0.0714317
0.0711297
0.0709119
0.0707243
0.0705501
0.0703876
0.0702347
0.0700886
0.0699475
0.0698117
0.0696793
0.0695491
0.0694195
0.0692888
0.0691545
0.0690138
0.0688629
0.0686972
0.0685111
0.0682964
0.0680425
0.0677279
0.0672941
0.0666711
0.065761
0.0644204
0.0624267
0.0594458
0.0550342
0.0487823
0.0407871
0.0314778
0.0202627
0.00729069
0.0721077
0.071533
0.0711695
0.0709207
0.0707097
0.0705112
0.0703241
0.0701459
0.0699737
0.0698059
0.0696421
0.0694805
0.0693196
0.0691577
0.0689926
0.0688218
0.0686419
0.0684488
0.0682379
0.0680017
0.0677274
0.0673961
0.0669764
0.066413
0.0656285
0.0645053
0.0628629
0.0604836
0.0570976
0.0523297
0.0457902
0.0376725
0.028288
0.0165174
0.00244048
0.0723911
0.0716957
0.07127
0.0709893
0.0707558
0.0705353
0.0703255
0.0701236
0.0699268
0.0697335
0.0695428
0.0693528
0.0691622
0.068969
0.0687712
0.068566
0.0683504
0.0681197
0.0678662
0.0675749
0.0672267
0.0668043
0.0662735
0.0655708
0.064586
0.0632004
0.0612321
0.0584284
0.054517
0.04925
0.0424416
0.0344469
0.0252992
0.0132445
-0.00216917
0.0727297
0.0719187
0.0714329
0.0711172
0.0708624
0.0706247
0.0703968
0.0701758
0.0699588
0.0697443
0.0695306
0.069316
0.0690988
0.0688772
0.0686488
0.0684111
0.0681592
0.0678825
0.067567
0.0671994
0.0667603
0.0662206
0.0655441
0.0646746
0.0634802
0.0618034
0.0594473
0.0561483
0.0516573
0.0458661
0.0388397
0.031109
0.0223132
0.010083
-0.00663334
0.0731041
0.0721806
0.0716347
0.0712827
0.0710078
0.0707561
0.0705129
0.070276
0.0700424
0.0698102
0.0695774
0.0693421
0.0691022
0.0688557
0.0685994
0.0683271
0.0680289
0.0676942
0.0673109
0.0668597
0.0663145
0.065641
0.0648025
0.063733
0.0622888
0.0602878
0.0575216
0.0537324
0.0486962
0.0423991
0.0351776
0.0276988
0.0191789
0.00678472
-0.0110705
0.0734941
0.0724588
0.0718492
0.0714561
0.0711534
0.0708841
0.0706263
0.0703733
0.070123
0.0698735
0.0696224
0.0693677
0.0691066
0.068836
0.068549
0.0682366
0.0678917
0.0675043
0.0670583
0.0665297
0.0658843
0.0650798
0.0640752
0.0627911
0.0610612
0.0586902
0.0554704
0.0511577
0.0455758
0.0388453
0.0315284
0.0242341
0.0158472
0.00324158
-0.0155635
0.0738947
0.0727478
0.0720696
0.0716291
0.0712902
0.0709899
0.0707063
0.0704315
0.070161
0.069891
0.069618
0.0693388
0.069049
0.068744
0.0684192
0.0680673
0.0676821
0.0672526
0.066757
0.0661648
0.0654349
0.0645159
0.0633536
0.061861
0.0598715
0.0571358
0.0534516
0.0486038
0.0424855
0.0353895
0.0280154
0.0208108
0.012435
-0.000411617
-0.0200943
0.0742971
0.0730379
0.0722863
0.071792
0.0714099
0.0710713
0.0707513
0.0704409
0.0701351
0.0698297
0.0695212
0.0692065
0.0688796
0.0685371
0.0681769
0.0677929
0.0673747
0.0669069
0.0663683
0.0657244
0.0649255
0.0639072
0.0625882
0.0608805
0.0586476
0.0555958
0.0514695
0.0460974
0.0394651
0.0320313
0.0245978
0.0174206
0.00897884
-0.00415529
-0.0246542
0.0746982
0.0733235
0.072493
0.0719381
0.0715058
0.0711223
0.0707593
0.0704069
0.0700592
0.0697123
0.0693624
0.0690065
0.0686425
0.0682666
0.0678729
0.0674531
0.066997
0.0664904
0.0659095
0.0652173
0.0643574
0.0632526
0.0618082
0.0599277
0.0574506
0.0540766
0.0495361
0.0436908
0.0365937
0.0288328
0.0212868
0.0140479
0.00545479
-0.00801623
-0.0292764
0.0751041
0.0736103
0.0726965
0.072076
0.0715888
0.0711557
0.0707456
0.0703472
0.0699553
0.069567
0.0691778
0.068784
0.0683827
0.0679684
0.0675347
0.0670741
0.0665761
0.0660246
0.0653941
0.0646458
0.06372
0.0625305
0.0609691
0.0589307
0.0562525
0.0526153
0.047688
0.0413347
0.0337788
0.0257108
0.0180318
0.0107083
0.0019444
-0.0118771
-0.0339088
0.0755271
0.0739117
0.0729115
0.0722218
0.0716753
0.0711883
0.0707272
0.070281
0.0698445
0.0694141
0.068984
0.0685497
0.0681075
0.0676516
0.0671759
0.0666723
0.0661287
0.0655265
0.064839
0.0640241
0.0630161
0.0617233
0.0600335
0.0578366
0.0549428
0.0509819
0.0456618
0.0389251
0.0309795
0.0226203
0.0147701
0.00729657
-0.00167334
-0.0158467
-0.0385833
0.0759742
0.0742354
0.0731464
0.0723844
0.0717748
0.0712303
0.0707164
0.070222
0.0697403
0.0692664
0.0687939
0.0683179
0.0678338
0.0673351
0.0668154
0.0662655
0.0656723
0.0650172
0.064271
0.0633875
0.0622967
0.0609028
0.0590868
0.0567386
0.0536578
0.0494433
0.0437392
0.0365204
0.0281612
0.0195135
0.0114829
0.00383983
-0.00537148
-0.0199244
-0.043302
0.0764505
0.0745859
0.0734061
0.0725694
0.0718933
0.0712887
0.0707212
0.0701779
0.0696505
0.0691323
0.0686159
0.0680957
0.0675668
0.0670223
0.0664552
0.0658551
0.0652084
0.0644944
0.0636811
0.062717
0.0615281
0.0600169
0.0580499
0.0555033
0.0521919
0.0477062
0.0416586
0.0340602
0.025346
0.0164234
0.00818307
0.000346653
-0.00910348
-0.0240218
-0.0480159
0.076963
0.0749699
0.0736969
0.0727834
0.0720391
0.0713742
0.0707544
0.0701637
0.069591
0.0690285
0.0684682
0.067904
0.0673311
0.0667423
0.0661289
0.0654801
0.0647812
0.0640099
0.0631298
0.0620812
0.0607756
0.0591019
0.0569319
0.0541471
0.0505512
0.0457547
0.0393943
0.0314514
0.0223676
0.0131768
0.00478381
-0.00323402
-0.0129583
-0.0282377
-0.0527529
0.0775147
0.0753931
0.0740244
0.0730294
0.0722155
0.0714921
0.0708219
0.0701851
0.0695687
0.0689637
0.0683616
0.0677558
0.0671412
0.0665104
0.0658553
0.065165
0.0644244
0.06361
0.0626825
0.0615777
0.0601964
0.0584035
0.0560452
0.0529834
0.0490179
0.043769
0.036982
0.0286659
0.0192665
0.00988659
0.00134948
-0.00685199
-0.0168531
-0.0325015
-0.0574642
0.0780961
0.0758449
0.0743772
0.0732983
0.0724144
0.0716337
0.0709138
0.0702315
0.0695724
0.0689263
0.0682834
0.0676365
0.0669798
0.0663059
0.0656069
0.0648735
0.0640923
0.0632404
0.0622783
0.0611405
0.0597275
0.0578949
0.0554564
0.0522343
0.0479999
0.0423658
0.0350615
0.0262511
0.0165055
0.00683793
-0.00194302
-0.0103684
-0.0206017
-0.0365332
-0.0620002
0.078684
0.0762973
0.0747303
0.073567
0.0726128
0.0717747
0.0710039
0.070275
0.0695711
0.0688809
0.068194
0.0675024
0.0667996
0.066078
0.0653305
0.0645478
0.0637165
0.0628159
0.0618095
0.0606381
0.0592138
0.0574034
0.0550103
0.0518046
0.0474957
0.0416553
0.0340073
0.024715
0.0144198
0.00427425
-0.00487756
-0.0135861
-0.0241403
-0.0405433
-0.0665888
0.0792719
0.0767383
0.0750679
0.0738212
0.0727966
0.0718975
0.0710717
0.0702912
0.0695376
0.0687983
0.0680619
0.0673189
0.0665629
0.065785
0.0649767
0.0641277
0.0632247
0.0622473
0.0611636
0.0599237
0.0584535
0.056636
0.054279
0.0511707
0.04701
0.0412494
0.0334644
0.0237847
0.0129418
0.00217693
-0.00745132
-0.016509
-0.0274217
-0.0443576
-0.0711452
0.0798709
0.0771818
0.0753974
0.0740608
0.0729617
0.0719978
0.0711121
0.070273
0.0694615
0.0686651
0.0678711
0.0670695
0.0662516
0.0654059
0.0645217
0.0635866
0.0625852
0.061495
0.060285
0.0589122
0.0573197
0.0554147
0.053049
0.0500334
0.0460302
0.0404142
0.0326243
0.0227225
0.0113457
3.04585e-05
-0.0100588
-0.019474
-0.0307656
-0.0482705
-0.0758434
0.0804997
0.0776446
0.0757373
0.0743069
0.0731304
0.0720978
0.0711476
0.0702456
0.0693723
0.0685121
0.067651
0.0667804
0.0658886
0.0649628
0.0639888
0.0629496
0.0618234
0.0605821
0.0591891
0.0575993
0.0557679
0.0536454
0.0511182
0.0480433
0.0441324
0.0387385
0.0311568
0.0211016
0.0093834
-0.00240263
-0.0129335
-0.0227094
-0.0344335
-0.0525545
-0.0807714
0.0811974
0.0781686
0.0761235
0.0745914
0.0733385
0.0722376
0.0712214
0.0702548
0.0693171
0.068391
0.0674629
0.0665228
0.0655561
0.0645477
0.0634784
0.0623258
0.0610657
0.0596533
0.0580311
0.0561501
0.053964
0.0514228
0.048475
0.0450566
0.0408574
0.0352472
0.0275728
0.0175474
0.00571236
-0.00615675
-0.0166527
-0.0265495
-0.0386538
-0.0573083
-0.0858542
0.0819882
0.0787752
0.0765999
0.0749687
0.0736343
0.0724609
0.0713774
0.0703467
0.0693465
0.0683578
0.0673669
0.0663617
0.0653264
0.0642448
0.063086
0.0618199
0.0604118
0.0588242
0.0569871
0.0547974
0.0521698
0.049061
0.0454724
0.0413576
0.0364434
0.0302266
0.0220895
0.0118752
0.0002602
-0.011093
-0.0212101
-0.0310993
-0.0434547
-0.062348
-0.0909143
0.0828793
0.0794776
0.0771842
0.0754616
0.0740463
0.0728028
0.0716564
0.0705664
0.0695086
0.068464
0.0674194
0.0663547
0.0652517
0.0640941
0.0628738
0.0615578
0.0600799
0.0583579
0.0562898
0.0537551
0.0506272
0.046851
0.0424592
0.0374922
0.0317529
0.0248164
0.0162039
0.00584688
-0.00543444
-0.0161392
-0.0258416
-0.0356839
-0.0482315
-0.067271
-0.0956871
0.0838878
0.0803046
0.077882
0.0760651
0.0745772
0.0732702
0.0720664
0.070923
0.069815
0.0687196
0.0676178
0.0665121
0.0653872
0.064214
0.062959
0.0615838
0.0600387
0.0582363
0.0560502
0.0533104
0.0498229
0.0454521
0.0401816
0.0341409
0.0272957
0.0194747
0.0103539
-1.93174e-06
-0.0107791
-0.0209089
-0.0303023
-0.0401171
-0.0527748
-0.071847
-0.100143
0.0849752
0.0812169
0.0786781
0.0767713
0.0752075
0.073838
0.0725804
0.0713893
0.0702356
0.0691017
0.067972
0.0668251
0.0656477
0.0644289
0.0631453
0.0617592
0.0602102
0.0584064
0.0562143
0.0534383
0.049834
0.0451684
0.0393087
0.032317
0.0243083
0.0153494
0.0055614
-0.00494425
-0.0155319
-0.0253599
-0.0345607
-0.0443296
-0.0569967
-0.0760305
-0.104316
0.0861305
0.0822045
0.0795357
0.0775251
0.0758839
0.0744544
0.0731474
0.0719116
0.0707142
0.0695335
0.0683516
0.0671565
0.0659381
0.0646821
0.0633697
0.061971
0.0604329
0.0586691
0.056558
0.0539131
0.0504697
0.0457718
0.0395861
0.0320119
0.0232034
0.0133369
0.00266312
-0.00838584
-0.019078
-0.0289349
-0.0382352
-0.0481325
-0.0609039
-0.0799468
-0.10829
0.0872695
0.0831776
0.0803822
0.078269
0.0765471
0.075053
0.0736916
0.0724047
0.0711574
0.0699247
0.0686956
0.0674498
0.0661725
0.0648616
0.0635083
0.0620998
0.0605628
0.058832
0.0568306
0.0543827
0.0512118
0.046845
0.0409236
0.0332382
0.0239442
0.0133679
0.00209634
-0.0093745
-0.0206028
-0.0309885
-0.0406638
-0.0507394
-0.0635869
-0.082877
-0.111928
0.0883471
0.0840817
0.0811575
0.0789341
0.0771225
0.0755599
0.0741401
0.0727977
0.0714941
0.0701997
0.0688871
0.0675664
0.0662212
0.0648249
0.063387
0.0619051
0.0603724
0.0587519
0.0569704
0.0548816
0.0522455
0.0487731
0.0438054
0.0368166
0.0276017
0.016304
0.00363972
-0.00927311
-0.0214944
-0.0324777
-0.0425024
-0.0527791
-0.0658384
-0.0855425
-0.115495
0.0893301
0.0849015
0.0818391
0.0795011
0.0775996
0.0759619
0.0744718
0.0730594
0.0716803
0.070305
0.0689179
0.0674881
0.0660272
0.0645279
0.0629663
0.0613579
0.0597012
0.0579992
0.0562409
0.0543722
0.0522447
0.0495922
0.046093
0.0412037
0.0339748
0.0236005
0.0103616
-0.00449051
-0.019342
-0.0326513
-0.0440214
-0.0548794
-0.068193
-0.088353
-0.119282
0.0902047
0.085575
0.0823421
0.0798685
0.0778624
0.0761315
0.0745478
0.0730377
0.0715546
0.0700658
0.0685511
0.0669947
0.0653775
0.0636942
0.0619469
0.0601345
0.0582644
0.0563532
0.0544299
0.0524972
0.0504933
0.0482679
0.0456179
0.0421834
0.0371912
0.029609
0.0186806
0.00459349
-0.0111897
-0.0265528
-0.0401226
-0.0525651
-0.0670529
-0.0887931
-0.122532
0.0910407
0.0861965
0.0827952
0.0801909
0.0780779
0.0762457
0.0745559
0.0729311
0.0713227
0.0696984
0.0680335
0.0663032
0.0644867
0.0625846
0.0605957
0.0585098
0.0563371
0.0541048
0.0518538
0.0496362
0.0474804
0.0453218
0.0430229
0.0402338
0.0361903
0.029878
0.0206191
0.00777699
-0.00802534
-0.024647
-0.0396954
-0.0529834
-0.0681769
-0.0913585
-0.126967
0.0918743
0.0867866
0.083203
0.080464
0.0782407
0.0762984
0.0744907
0.0727381
0.0709883
0.0691947
0.0673296
0.065395
0.0633676
0.0612157
0.0589312
0.0565124
0.0539658
0.0513079
0.0485743
0.0458309
0.0431654
0.0406748
0.038286
0.0356354
0.0321924
0.0269907
0.0184995
0.00572094
-0.0103287
-0.0272655
-0.0424032
-0.0558697
-0.0716621
-0.0956795
-0.132119
0.0928455
0.0875156
0.083768
0.0809087
0.0785835
0.076541
0.0746275
0.0727469
0.0708398
0.0689039
0.0669077
0.0647873
0.0625233
0.0601234
0.0575762
0.0548595
0.0519495
0.0488317
0.0455132
0.0420508
0.0385555
0.0351428
0.0317311
0.0280355
0.023517
0.0173513
0.00853181
-0.0035209
-0.0183912
-0.033436
-0.0468911
-0.0601282
-0.0766528
-0.101591
-0.137699
0.0939845
0.0884318
0.0845329
0.0815628
0.079149
0.0770222
0.0750167
0.0730532
0.0710766
0.0690215
0.0668512
0.0645563
0.0621245
0.059551
0.0568305
0.0539347
0.0508122
0.0473958
0.043623
0.0394904
0.0350771
0.0304914
0.0257195
0.0205861
0.0146254
0.00714956
-0.00251328
-0.0144316
-0.0276463
-0.0406041
-0.0528477
-0.0657656
-0.0824342
-0.107016
-0.142233
0.0952657
0.0895312
0.0855031
0.0824342
0.0799385
0.0777376
0.0756624
0.0736091
0.0715134
0.069334
0.0670331
0.0645934
0.062015
0.0593082
0.0564829
0.0535252
0.0503663
0.0468841
0.0429311
0.0383929
0.0332609
0.0275897
0.0214156
0.014738
0.00735685
-0.00116226
-0.0112017
-0.0226234
-0.0346549
-0.04641
-0.0579383
-0.0706155
-0.087239
-0.111539
-0.146361
0.0966031
0.0907189
0.0865791
0.0834079
0.080828
0.0785579
0.0764109
0.0742826
0.0720984
0.0698
0.0673575
0.0647627
0.0620339
0.0592063
0.0563142
0.0533582
0.0502704
0.0469095
0.0430761
0.0385635
0.0332134
0.0270023
0.0199029
0.0119129
0.00305175
-0.0067047
-0.0174091
-0.0288007
-0.040276
-0.0514399
-0.0626552
-0.0751774
-0.091656
-0.115734
-0.150349
0.0979279
0.0919106
0.0876693
0.0844041
0.0817401
0.0793939
0.0771709
0.0749544
0.0726629
0.0702375
0.067643
0.0648767
0.0619725
0.0589935
0.0560029
0.0530217
0.050004
0.0468234
0.0432727
0.0390853
0.0340063
0.0278309
0.0204423
0.0118851
0.00231869
-0.0082838
-0.0196991
-0.0315337
-0.043221
-0.0544846
-0.065794
-0.0785096
-0.0952139
-0.119396
-0.154218
0.0992022
0.0930649
0.0887143
0.085344
0.0825916
0.080163
0.0778509
0.0755302
0.0731152
0.0705368
0.0677622
0.0647968
0.0616915
0.0585227
0.055367
0.0522781
0.0492344
0.0461379
0.0428157
0.0390305
0.0345165
0.028944
0.0219494
0.0133451
0.00319844
-0.00806037
-0.0201283
-0.032545
-0.0447171
-0.0563965
-0.0680171
-0.0809711
-0.0979693
-0.122623
-0.158129
0.100415
0.0941554
0.0897024
0.0862348
0.0833845
0.0808568
0.0784379
0.0759932
0.0734299
0.0706772
0.0676874
0.064469
0.0611097
0.0577109
0.0543526
0.0510955
0.0479357
0.0447963
0.0415373
0.037978
0.033831
0.0286272
0.0219977
0.0137377
0.00377586
-0.00771082
-0.0203598
-0.0335073
-0.0463522
-0.0584466
-0.070327
-0.08352
-0.100849
-0.126075
-0.162296
0.10162
0.0952296
0.0906582
0.0870797
0.0841291
0.0815018
0.0789741
0.0764012
0.0736805
0.0707289
0.067499
0.0640064
0.0603521
0.0566766
0.0530756
0.049597
0.0462401
0.0429382
0.0395661
0.0359731
0.0319139
0.027018
0.0208054
0.0128405
0.00284603
-0.00885272
-0.0217744
-0.0352524
-0.048554
-0.0611372
-0.0733993
-0.0868983
-0.104612
-0.1303
-0.166833
0.10285
0.0963257
0.0916543
0.0879852
0.0849406
0.0822168
0.0795837
0.0768853
0.0740064
0.0708517
0.0673641
0.0635897
0.059653
0.0556951
0.0518231
0.0480825
0.0444692
0.0409119
0.0373
0.0334746
0.0291737
0.0240737
0.0178265
0.0100627
0.000503887
-0.0110753
-0.0243054
-0.0383133
-0.0519371
-0.0646601
-0.0770732
-0.0908875
-0.109026
-0.13498
-0.171478
0.10413
0.0974899
0.0927233
0.0889637
0.0858315
0.0830214
0.0802915
0.0774778
0.0744526
0.0711001
0.0673646
0.0632958
0.0590592
0.0548371
0.0507074
0.0466993
0.0428061
0.0389481
0.0349897
0.0307408
0.0259728
0.0204259
0.0137939
0.0057415
-0.00403078
-0.0156479
-0.0288005
-0.0426206
-0.0560404
-0.0686541
-0.0811215
-0.0951246
-0.11353
-0.139638
-0.176003
0.105468
0.0987077
0.0938474
0.0900042
0.0868079
0.0839274
0.0811068
0.0781762
0.0750045
0.0714605
0.0674843
0.0631388
0.0586063
0.0541133
0.0497676
0.045561
0.0414465
0.037326
0.0330295
0.0283291
0.0229903
0.0167599
0.00937681
0.000610986
-0.00970708
-0.0215857
-0.0346804
-0.048192
-0.0612405
-0.0735818
-0.0859094
-0.0998846
-0.118301
-0.144314
-0.180425
0.106844
0.0999608
0.0950009
0.0910776
0.0878155
0.0848718
0.0819856
0.0789762
0.0756872
0.071967
0.0677544
0.0631395
0.0583082
0.0535538
0.049041
0.0447328
0.0405418
0.0363342
0.0319036
0.0270217
0.0213999
0.0147035
0.0066539
-0.00287532
-0.0138606
-0.0261672
-0.0393408
-0.0526692
-0.0654716
-0.0776847
-0.0900291
-0.10408
-0.122551
-0.148543
-0.184545
0.108228
0.101224
0.0961983
0.0922378
0.0889384
0.0859489
0.0830003
0.0799083
0.0765128
0.0726734
0.0682663
0.0633055
0.058117
0.0530049
0.0481939
0.0437319
0.0395307
0.0354021
0.0310968
0.0263439
0.020833
0.0142169
0.0061842
-0.00341693
-0.0146907
-0.027318
-0.0407802
-0.0543285
-0.0673586
-0.0798177
-0.0923971
-0.106696
-0.125475
-0.151795
-0.188315
0.109595
0.102467
0.0973605
0.0933581
0.0900246
0.0869985
0.0840115
0.080879
0.0774338
0.0734985
0.0689198
0.0636904
0.0580076
0.0523621
0.0471073
0.0423574
0.0380122
0.0338732
0.0296776
0.025128
0.0198728
0.0135154
0.00565963
-0.00383839
-0.0149852
-0.0276178
-0.0412651
-0.0551438
-0.0686032
-0.0814562
-0.0943553
-0.108945
-0.128108
-0.154995
-0.192221
0.11097
0.103711
0.0985217
0.094493
0.0911497
0.0881122
0.0851055
0.0819434
0.0784727
0.0745096
0.0698513
0.0643823
0.0582905
0.0519997
0.0460673
0.0407565
0.0360523
0.0317277
0.027516
0.0230989
0.0181049
0.0121225
0.00471359
-0.00462203
-0.015889
-0.0286984
-0.0425601
-0.056718
-0.0703913
-0.0834701
-0.0965963
-0.111429
-0.130916
-0.158374
-0.196257
0.112368
0.104965
0.099706
0.0956389
0.0922688
0.089215
0.086208
0.0830679
0.0796227
0.0756862
0.0710255
0.0654518
0.0590206
0.0521302
0.0453494
0.03924
0.033874
0.0290469
0.0245192
0.0199741
0.0150289
0.00926455
0.00224089
-0.0064548
-0.0171891
-0.0299573
-0.0439909
-0.0583277
-0.0722138
-0.0854805
-0.0988147
-0.113994
-0.134036
-0.162033
-0.200379
0.113812
0.106263
0.100935
0.0968343
0.0934755
0.090427
0.0874358
0.0843269
0.0809536
0.0771224
0.0725906
0.0670902
0.0605197
0.0531085
0.0454689
0.038316
0.0319932
0.0263732
0.0211908
0.0161611
0.0108786
0.00490576
-0.0021988
-0.0108368
-0.0212723
-0.033441
-0.0469111
-0.0608303
-0.0744656
-0.0877494
-0.101408
-0.117067
-0.137572
-0.165961
-0.204551
0.115304
0.107607
0.102206
0.0980662
0.0946829
0.0916535
0.0886877
0.0856264
0.0823324
0.0786346
0.0742958
0.0690364
0.062634
0.0550793
0.0467527
0.0384807
0.0308985
0.0241233
0.0180235
0.0122596
0.00641778
1.76724e-05
-0.00739964
-0.0162104
-0.026608
-0.0384839
-0.051385
-0.0646532
-0.077809
-0.0909101
-0.10463
-0.120525
-0.141349
-0.169937
-0.208602
0.116821
0.108986
0.103506
0.0993173
0.0958926
0.0928506
0.0899179
0.0869307
0.0837415
0.0801899
0.0760775
0.0711634
0.0651478
0.0578676
0.0494675
0.0404991
0.0316641
0.0234094
0.0158763
0.00899404
0.00233248
-0.00460428
-0.0123133
-0.021181
-0.0313916
-0.0428344
-0.0551168
-0.0677603
-0.080476
-0.0933876
-0.107171
-0.123366
-0.144565
-0.1734
-0.212405
0.118315
0.11035
0.104791
0.100547
0.0970819
0.0940017
0.0910423
0.0880382
0.0848851
0.0814632
0.0776176
0.0731016
0.0676488
0.0609668
0.0529921
0.0438957
0.034262
0.0247233
0.0157886
0.00739162
-0.000618228
-0.00851237
-0.0167665
-0.0258214
-0.0358989
-0.0469578
-0.0587314
-0.0708891
-0.0832749
-0.0960634
-0.109861
-0.126149
-0.147533
-0.176646
-0.216122
0.119736
0.111642
0.105983
0.101673
0.0981721
0.0950624
0.0920678
0.0890316
0.0858309
0.0823709
0.0785234
0.074132
0.069039
0.0630817
0.0558868
0.0473244
0.0377103
0.0275613
0.0174054
0.00777132
-0.00132304
-0.0103953
-0.0195608
-0.0290881
-0.0392716
-0.0501814
-0.0616883
-0.0736105
-0.0858746
-0.0986932
-0.112617
-0.129046
-0.150579
-0.179935
-0.21991
0.121076
0.112788
0.10699
0.10258
0.099006
0.0958457
0.0928249
0.0897785
0.08658
0.0830985
0.0791922
0.0747406
0.0695957
0.0636484
0.0568535
0.0491072
0.0402523
0.0303566
0.0199231
0.0094262
-0.000926173
-0.0109347
-0.0208564
-0.0309749
-0.0414096
-0.0523184
-0.0637109
-0.0755312
-0.0877939
-0.10071
-0.114836
-0.131625
-0.153563
-0.183318
-0.223833
0.122379
0.113904
0.107966
0.103453
0.0997923
0.0965513
0.0934451
0.090311
0.0870351
0.0834987
0.0795699
0.0751024
0.0699518
0.0639841
0.057117
0.0494016
0.0409093
0.0317165
0.0218097
0.0112415
0.000353671
-0.0104992
-0.0213418
-0.032115
-0.0430017
-0.054134
-0.0655939
-0.077424
-0.0897254
-0.102784
-0.117126
-0.13419
-0.156466
-0.186659
-0.227797
0.123673
0.114953
0.108864
0.104266
0.100541
0.0972344
0.0940627
0.0908506
0.0874841
0.0838479
0.0798152
0.0752426
0.0699836
0.0639175
0.0569561
0.0491018
0.0405454
0.0313956
0.0216176
0.0112689
0.000425226
-0.0107369
-0.0220706
-0.0334279
-0.0448145
-0.0562662
-0.0678851
-0.0797802
-0.0920958
-0.105118
-0.119575
-0.136918
-0.159654
-0.190389
-0.231961
0.125043
0.116081
0.109835
0.105127
0.101319
0.0979544
0.0947579
0.0915146
0.0880902
0.0843961
0.0802993
0.0756583
0.0703008
0.0641003
0.0569658
0.0489092
0.0400914
0.0307461
0.0209715
0.0106787
-0.000158541
-0.0114302
-0.0228955
-0.034489
-0.0462733
-0.0581168
-0.0700135
-0.082086
-0.094545
-0.107753
-0.122424
-0.140094
-0.163254
-0.19435
-0.23614
0.126517
0.117346
0.110974
0.106171
0.102268
0.0987998
0.095494
0.0921973
0.0888082
0.0851385
0.081013
0.0763506
0.0710388
0.0648764
0.0577127
0.0494511
0.0402363
0.0303884
0.0200953
0.00941417
-0.00160797
-0.0128493
-0.0243775
-0.0362709
-0.0483487
-0.0605008
-0.0726996
-0.0850152
-0.097632
-0.11094
-0.125714
-0.143569
-0.16698
-0.198275
-0.240202
0.128047
0.118649
0.112143
0.10726
0.103292
0.0997675
0.0964155
0.0930718
0.0896238
0.0859699
0.0819391
0.0773817
0.0721653
0.0661833
0.059252
0.051152
0.0417793
0.0313791
0.0203977
0.00905079
-0.00259017
-0.0143735
-0.0263749
-0.0386391
-0.0510706
-0.0635368
-0.0759971
-0.0885346
-0.101349
-0.114816
-0.129685
-0.147586
-0.171024
-0.202289
-0.244164
0.129627
0.120045
0.113418
0.108438
0.104398
0.10082
0.0974228
0.094042
0.0905577
0.0868666
0.0828678
0.0784792
0.073601
0.0680161
0.0616003
0.0541472
0.0453399
0.0350618
0.0235393
0.0110448
-0.00174062
-0.0142565
-0.0265991
-0.0391321
-0.0519057
-0.0648067
-0.0777246
-0.0906928
-0.103837
-0.117544
-0.132616
-0.150661
-0.174221
-0.205625
-0.247742
0.131138
0.121364
0.114619
0.109548
0.105433
0.101801
0.0983665
0.0949562
0.0914538
0.0877536
0.0837577
0.079384
0.074579
0.0693131
0.0634911
0.0569286
0.0493108
0.0402835
0.0295287
0.017095
0.00346157
-0.0107905
-0.0249412
-0.0386277
-0.0520819
-0.065433
-0.0786765
-0.0918824
-0.105275
-0.119236
-0.13452
-0.152796
-0.176659
-0.208473
-0.25123
0.132566
0.122574
0.115671
0.110481
0.106278
0.102578
0.0990876
0.0956302
0.0920864
0.0883516
0.0843314
0.079955
0.0751911
0.0700229
0.0644176
0.0584198
0.051842
0.0442325
0.0352256
0.0243561
0.0114833
-0.0029655
-0.0182434
-0.0336232
-0.0487327
-0.063446
-0.0777653
-0.0918229
-0.105853
-0.120249
-0.135799
-0.154272
-0.178434
-0.210841
-0.254604
0.133884
0.123641
0.116578
0.111274
0.106987
0.10322
0.0996684
0.0961536
0.0925531
0.0887667
0.0847008
0.0802833
0.0754754
0.0702865
0.0647696
0.0589205
0.0527585
0.0461831
0.0387158
0.0298181
0.0188536
0.00561593
-0.00944231
-0.0256129
-0.0421645
-0.0585238
-0.0743617
-0.089625
-0.104536
-0.119578
-0.135618
-0.154509
-0.179254
-0.212687
-0.257913
0.135112
0.124566
0.117325
0.111906
0.107535
0.103703
0.100097
0.0965408
0.0929091
0.0890968
0.0849989
0.0805293
0.0756504
0.0703819
0.064797
0.0589708
0.0529518
0.0466302
0.0398954
0.0323454
0.0232164
0.011891
-0.00176975
-0.0175062
-0.0346864
-0.0524617
-0.0700284
-0.0869493
-0.103188
-0.119128
-0.135703
-0.154952
-0.180235
-0.214752
-0.26144
0.136273
0.12539
0.117955
0.112417
0.107965
0.10408
0.100435
0.0968431
0.09318
0.0893405
0.0852299
0.0807532
0.0758535
0.0705198
0.0647964
0.0588177
0.0526944
0.0464657
0.0400883
0.0331932
0.0252578
0.0156349
0.00379361
-0.0105836
-0.0274512
-0.0460248
-0.0651088
-0.0837955
-0.101601
-0.118676
-0.135925
-0.155552
-0.181391
-0.21706
-0.265156
0.137357
0.12607
0.11838
0.112684
0.108126
0.104163
0.100462
0.0968199
0.0931105
0.0892351
0.0850959
0.0806061
0.0757048
0.0703886
0.0646721
0.0586013
0.0522834
0.0458384
0.0393497
0.0326892
0.0253641
0.0167232
0.00626838
-0.00651863
-0.0219812
-0.040045
-0.0598119
-0.0799415
-0.0993381
-0.117615
-0.135647
-0.155889
-0.182531
-0.219465
-0.268946
0.138374
0.126594
0.118598
0.112715
0.10803
0.103972
0.100189
0.0964768
0.0926933
0.08873
0.0845043
0.0799646
0.0750753
0.0698183
0.0641717
0.0581353
0.0517546
0.0451158
0.0383488
0.0314582
0.0241851
0.0160025
0.00603862
-0.00612601
-0.0208778
-0.0382675
-0.057895
-0.0785983
-0.0988959
-0.118034
-0.136703
-0.157495
-0.184795
-0.222549
-0.272973
0.139331
0.126961
0.118551
0.112398
0.107545
0.103357
0.0994545
0.09562
0.0917051
0.0875947
0.0832165
0.078551
0.0736124
0.0684035
0.0629046
0.0570727
0.0508655
0.0442789
0.0373891
0.0302211
0.0226063
0.0142489
0.00468712
-0.00698156
-0.0215848
-0.0391223
-0.059008
-0.0799556
-0.100401
-0.119631
-0.13847
-0.159529
-0.187265
-0.22568
-0.27693
0.140261
0.127219
0.118374
0.11193
0.106867
0.102499
0.0984194
0.0943915
0.0902553
0.0859004
0.0812713
0.0764029
0.0713748
0.0662111
0.0608743
0.055286
0.0493627
0.0430476
0.0363346
0.0291538
0.0213455
0.0127153
0.00290289
-0.0087542
-0.0229441
-0.0402194
-0.060242
-0.0814559
-0.102166
-0.121442
-0.140302
-0.161547
-0.189654
-0.228611
-0.280732
0.141109
0.12729
0.117952
0.111211
0.105939
0.101371
0.0970666
0.0927683
0.0883054
0.0835762
0.0785921
0.0734677
0.0683025
0.0631249
0.0578717
0.0524422
0.0467396
0.0407231
0.0343118
0.0273224
0.0196474
0.0111373
0.00140744
-0.0101784
-0.0243734
-0.0416629
-0.0617157
-0.0831256
-0.103998
-0.123466
-0.142524
-0.164026
-0.192519
-0.231987
-0.284733
0.141979
0.12732
0.117462
0.110414
0.104927
0.10015
0.095593
0.0909792
0.0861224
0.0809542
0.0755743
0.070171
0.0648421
0.0595494
0.0542183
0.0487274
0.0429765
0.0369132
0.0304563
0.0234903
0.015906
0.0075204
-0.00205669
-0.0134328
-0.0273278
-0.0442335
-0.0638886
-0.0850278
-0.105907
-0.125544
-0.144844
-0.166655
-0.195506
-0.235385
-0.288808
0.142919
0.127402
0.117061
0.109745
0.104062
0.0990756
0.0942554
0.0892906
0.0840096
0.0784156
0.0727091
0.0671184
0.0617018
0.0563457
0.0508855
0.0452133
0.039225
0.0328444
0.0259848