/*--------------------------------*- C++ -*----------------------------------*\
  =========                 |
  \\      /  F ield         | OpenFOAM: The Open Source CFD Toolbox
   \\    /   O peration     | Website:  https://openfoam.org
    \\  /    A nd           | Version:  8
     \\/     M anipulation  |
\*---------------------------------------------------------------------------*/
FoamFile
{
    version     2.0;
    format      ascii;
    class       surfaceScalarField;
    location    "1000";
    object      phi;
}
// * * * * * * * * * * * * * * * * * * * * * * * * * * * * * * * * * * * * * //

dimensions      [1 0 -1 0 0 0 0];

internalField   nonuniform List<scalar> 
228225
(
1.80349e-08
-1.60235e-08
-2.02024e-09
6.51757e-08
-4.14908e-08
-5.66343e-09
1.36095e-07
-6.19205e-08
-9.01423e-09
2.26632e-07
-7.84536e-08
-1.20996e-08
3.33392e-07
-9.18638e-08
-1.4913e-08
4.53566e-07
-1.02734e-07
-1.7457e-08
5.84813e-07
-1.11523e-07
-1.97422e-08
7.25167e-07
-1.18591e-07
-2.17803e-08
8.72974e-07
-1.24231e-07
-2.35929e-08
1.02683e-06
-1.28684e-07
-2.51886e-08
1.18554e-06
-1.32144e-07
-2.65834e-08
1.34811e-06
-1.34792e-07
-2.77921e-08
1.51371e-06
-1.36795e-07
-2.88299e-08
1.68172e-06
-1.38306e-07
-2.97127e-08
1.85162e-06
-1.39469e-07
-3.04572e-08
2.02311e-06
-1.40421e-07
-3.1081e-08
2.19599e-06
-1.41294e-07
-3.16038e-08
2.37024e-06
-1.42215e-07
-3.20487e-08
2.54597e-06
-1.43302e-07
-3.24465e-08
2.72344e-06
-1.44645e-07
-3.2844e-08
2.90302e-06
-1.46264e-07
-3.33265e-08
3.08501e-06
-1.48268e-07
-3.37455e-08
3.26916e-06
-1.50031e-07
-3.41295e-08
3.45545e-06
-1.5174e-07
-3.45729e-08
3.64339e-06
-1.52702e-07
-3.52534e-08
3.82993e-06
-1.50652e-07
-3.59057e-08
4.00608e-06
-1.39671e-07
-3.64959e-08
4.16402e-06
-1.21118e-07
-3.68378e-08
4.25575e-06
-5.47158e-08
-3.70256e-08
4.24143e-06
5.11121e-08
-3.68085e-08
4.0638e-06
2.13174e-07
-3.55614e-08
3.50814e-06
5.87468e-07
-3.18213e-08
2.47523e-06
1.06016e-06
-2.72692e-08
1.051e-06
1.44193e-06
-1.77231e-08
1.05758e-06
-6.58614e-09
1.94098e-08
-3.1248e-08
-4.20462e-09
7.25334e-08
-8.28449e-08
-1.17954e-08
1.54338e-07
-1.25077e-07
-1.86765e-08
2.60205e-07
-1.59475e-07
-2.48736e-08
3.86068e-07
-1.87357e-07
-3.03985e-08
5.28368e-07
-2.09767e-07
-3.52966e-08
6.83976e-07
-2.27547e-07
-3.96121e-08
8.50139e-07
-2.41388e-07
-4.33947e-08
1.02443e-06
-2.51858e-07
-4.66962e-08
1.20473e-06
-2.59438e-07
-4.95675e-08
1.38913e-06
-2.64519e-07
-5.20575e-08
1.57598e-06
-2.67452e-07
-5.42127e-08
1.76378e-06
-2.68548e-07
-5.6077e-08
1.95122e-06
-2.6808e-07
-5.76915e-08
2.1371e-06
-2.6628e-07
-5.90951e-08
2.32033e-06
-2.63353e-07
-6.03248e-08
2.49989e-06
-2.59471e-07
-6.1417e-08
2.67484e-06
-2.54785e-07
-6.24087e-08
2.84425e-06
-2.49397e-07
-6.33328e-08
3.00705e-06
-2.43254e-07
-6.42173e-08
3.16171e-06
-2.3607e-07
-6.4881e-08
3.30732e-06
-2.28401e-07
-6.55111e-08
3.44189e-06
-2.1847e-07
-6.615e-08
3.56165e-06
-2.04719e-07
-6.68086e-08
3.6668e-06
-1.90458e-07
-6.74267e-08
3.75215e-06
-1.67548e-07
-6.84774e-08
3.80213e-06
-1.20173e-07
-6.95005e-08
3.79078e-06
-3.93568e-08
-7.04336e-08
3.71572e-06
9.15519e-08
-7.12243e-08
3.51741e-06
3.20248e-07
-7.08548e-08
3.10051e-06
6.98845e-07
-6.87903e-08
2.41215e-06
1.33713e-06
-6.13249e-08
1.44721e-06
2.07294e-06
-4.78633e-08
4.9396e-07
2.42456e-06
-2.93966e-08
1.56179e-06
-1.02424e-08
2.20649e-08
-4.82003e-08
-5.13206e-09
8.00366e-08
-1.26868e-07
-1.39744e-08
1.673e-07
-1.90786e-07
-2.15818e-08
2.7845e-07
-2.42568e-07
-2.80839e-08
4.08825e-07
-2.84192e-07
-3.35672e-08
5.54399e-07
-3.17235e-07
-3.81343e-08
7.11683e-07
-3.42964e-07
-4.18953e-08
8.7764e-07
-3.62411e-07
-4.49618e-08
1.04962e-06
-3.76426e-07
-4.74418e-08
1.22531e-06
-3.85718e-07
-4.94362e-08
1.40269e-06
-3.90889e-07
-5.10376e-08
1.58001e-06
-3.92468e-07
-5.2329e-08
1.75576e-06
-3.90942e-07
-5.33837e-08
1.92861e-06
-3.86685e-07
-5.42649e-08
2.09724e-06
-3.79913e-07
-5.5026e-08
2.26044e-06
-3.70869e-07
-5.5707e-08
2.41694e-06
-3.59651e-07
-5.63499e-08
2.56551e-06
-3.46353e-07
-5.70273e-08
2.7051e-06
-3.31218e-07
-5.78013e-08
2.83677e-06
-3.16376e-07
-5.85667e-08
2.95811e-06
-2.98197e-07
-5.92457e-08
3.06681e-06
-2.77097e-07
-6.00285e-08
3.16136e-06
-2.52059e-07
-6.09878e-08
3.23788e-06
-2.19103e-07
-6.21542e-08
3.29026e-06
-1.79352e-07
-6.35095e-08
3.3087e-06
-1.20893e-07
-6.51205e-08
3.27691e-06
-2.13767e-08
-6.70354e-08
3.19487e-06
1.11827e-07
-6.91604e-08
3.03608e-06
3.21323e-07
-7.10125e-08
2.72946e-06
6.98364e-07
-7.1519e-08
2.21144e-06
1.28639e-06
-6.95509e-08
1.5258e-06
2.08538e-06
-6.26238e-08
7.93351e-07
2.8547e-06
-4.93383e-08
2.18514e-07
3.03029e-06
-3.09202e-08
1.79115e-06
-1.08534e-08
2.18397e-08
-6.45061e-08
-5.55213e-09
7.98992e-08
-1.70183e-07
-1.47689e-08
1.67318e-07
-2.55888e-07
-2.23421e-08
2.78165e-07
-3.24971e-07
-2.84703e-08
4.07407e-07
-3.80143e-07
-3.33171e-08
5.50758e-07
-4.23551e-07
-3.70608e-08
7.04554e-07
-4.56902e-07
-3.98828e-08
8.6565e-07
-4.81571e-07
-4.196e-08
1.03134e-06
-4.98682e-07
-4.34592e-08
1.19929e-06
-5.09157e-07
-4.45325e-08
1.36745e-06
-5.1376e-07
-4.53146e-08
1.534e-06
-5.13126e-07
-4.59204e-08
1.69731e-06
-5.07821e-07
-4.64475e-08
1.85719e-06
-4.99619e-07
-4.69768e-08
2.01272e-06
-4.87878e-07
-4.75866e-08
2.16253e-06
-4.72573e-07
-4.81229e-08
2.30562e-06
-4.541e-07
-4.86692e-08
2.44106e-06
-4.32467e-07
-4.93514e-08
2.56776e-06
-4.07794e-07
-5.01444e-08
2.68461e-06
-3.82156e-07
-5.10871e-08
2.79022e-06
-3.5153e-07
-5.22969e-08
2.88249e-06
-3.15701e-07
-5.36946e-08
2.95903e-06
-2.73329e-07
-5.52848e-08
3.01701e-06
-2.19785e-07
-5.73262e-08
3.04481e-06
-1.47599e-07
-5.95691e-08
3.02935e-06
-4.32987e-08
-6.21603e-08
2.98491e-06
8.81094e-08
-6.50669e-08
2.88394e-06
2.80782e-07
-6.80053e-08
2.6631e-06
6.12467e-07
-7.03201e-08
2.30169e-06
1.13154e-06
-7.1791e-08
1.78793e-06
1.87056e-06
-7.04357e-08
1.17711e-06
2.76014e-06
-6.39634e-08
5.82289e-07
3.50049e-06
-5.0977e-08
1.51097e-07
3.49403e-06
-3.2562e-08
1.95394e-06
-1.16933e-08
2.39693e-08
-8.27407e-08
-5.75198e-09
8.59575e-08
-2.17275e-07
-1.49184e-08
1.77561e-07
-3.25476e-07
-2.2039e-08
2.92109e-07
-4.12144e-07
-2.73979e-08
4.24039e-07
-4.80845e-07
-3.12517e-08
5.68685e-07
-5.34353e-07
-3.38683e-08
7.22139e-07
-5.74864e-07
-3.55152e-08
8.8114e-07
-6.04145e-07
-3.6449e-08
1.04298e-06
-6.23639e-07
-3.69061e-08
1.20543e-06
-6.3453e-07
-3.70941e-08
1.36662e-06
-6.37787e-07
-3.71848e-08
1.52496e-06
-6.34187e-07
-3.73082e-08
1.67994e-06
-6.25243e-07
-3.75691e-08
1.82993e-06
-6.11767e-07
-3.78641e-08
1.97426e-06
-5.93913e-07
-3.83103e-08
2.11199e-06
-5.71309e-07
-3.90174e-08
2.24228e-06
-5.44455e-07
-3.99526e-08
2.36435e-06
-5.13439e-07
-4.11195e-08
2.47716e-06
-4.78109e-07
-4.25205e-08
2.57716e-06
-4.38016e-07
-4.4157e-08
2.66372e-06
-3.92084e-07
-4.60251e-08
2.73442e-06
-3.38308e-07
-4.81182e-08
2.78493e-06
-2.73181e-07
-5.06749e-08
2.80913e-06
-1.9061e-07
-5.34008e-08
2.79796e-06
-8.00353e-08
-5.64109e-08
2.76333e-06
5.10415e-08
-5.97328e-08
2.69411e-06
2.20469e-07
-6.31616e-08
2.5381e-06
5.03092e-07
-6.63231e-08
2.28481e-06
9.35201e-07
-6.9464e-08
1.92079e-06
1.56689e-06
-7.13448e-08
1.45248e-06
2.40918e-06
-7.03238e-08
9.29872e-07
3.347e-06
-6.42613e-08
4.49604e-07
4.03246e-06
-5.17268e-08
1.11632e-07
3.86578e-06
-3.37961e-08
2.07788e-06
-1.2311e-08
2.52249e-08
-1.02651e-07
-5.33108e-09
9.08236e-08
-2.69397e-07
-1.34974e-08
1.86816e-07
-4.02084e-07
-1.9405e-08
3.05256e-07
-5.07233e-07
-2.33725e-08
4.39787e-07
-5.89661e-07
-2.57355e-08
5.85309e-07
-6.53041e-07
-2.68537e-08
7.3776e-07
-7.00244e-07
-2.70903e-08
8.93945e-07
-7.33558e-07
-2.67917e-08
1.05139e-06
-7.54836e-07
-2.6266e-08
1.20819e-06
-7.65584e-07
-2.57629e-08
1.36294e-06
-7.67098e-07
-2.54595e-08
1.51515e-06
-7.60928e-07
-2.54865e-08
1.66387e-06
-7.48229e-07
-2.57484e-08
1.80708e-06
-7.28687e-07
-2.63126e-08
1.94345e-06
-7.03054e-07
-2.72393e-08
2.07227e-06
-6.71661e-07
-2.84866e-08
2.19247e-06
-6.34641e-07
-3.00291e-08
2.30279e-06
-5.91936e-07
-3.18453e-08
2.40178e-06
-5.43189e-07
-3.39192e-08
2.48756e-06
-4.87581e-07
-3.62408e-08
2.55784e-06
-4.23579e-07
-3.87995e-08
2.60964e-06
-3.48341e-07
-4.17846e-08
2.63905e-06
-2.57695e-07
-4.4914e-08
2.64129e-06
-1.44532e-07
-4.833e-08
2.61112e-06
2.21293e-09
-5.20963e-08
2.56682e-06
1.51273e-07
-5.59466e-08
2.46003e-06
3.86893e-07
-5.96524e-08
2.28533e-06
7.41226e-07
-6.34474e-08
2.02731e-06
1.26029e-06
-6.7091e-08
1.67653e-06
1.98691e-06
-6.92552e-08
1.24629e-06
2.90769e-06
-6.82938e-08
7.85911e-07
3.86965e-06
-6.2294e-08
3.77576e-07
4.49088e-06
-5.01021e-08
9.39461e-08
4.18258e-06
-3.31927e-08
2.18383e-06
-1.2001e-08
3.04285e-08
-1.28304e-07
-4.78963e-09
1.06438e-07
-3.33777e-07
-1.16474e-08
2.13523e-07
-4.93172e-07
-1.60159e-08
3.41752e-07
-6.17177e-07
-1.83026e-08
4.83878e-07
-7.12839e-07
-1.89654e-08
6.34554e-07
-7.8524e-07
-1.84942e-08
7.89838e-07
-8.38163e-07
-1.7381e-08
9.46889e-07
-8.74544e-07
-1.60796e-08
1.1037e-06
-8.96703e-07
-1.49602e-08
1.25884e-06
-9.06469e-07
-1.42715e-08
1.41108e-06
-9.05191e-07
-1.41613e-08
1.56041e-06
-8.95776e-07
-1.44914e-08
1.70458e-06
-8.7712e-07
-1.52949e-08
1.84284e-06
-8.5038e-07
-1.65749e-08
1.974e-06
-8.15996e-07
-1.82356e-08
2.09679e-06
-7.74249e-07
-2.02123e-08
2.20979e-06
-7.25204e-07
-2.24557e-08
2.31143e-06
-6.68651e-07
-2.49326e-08
2.39984e-06
-6.03993e-07
-2.7625e-08
2.47286e-06
-5.30079e-07
-3.05264e-08
2.52735e-06
-4.44442e-07
-3.36423e-08
2.56021e-06
-3.44283e-07
-3.69323e-08
2.56768e-06
-2.24733e-07
-4.04528e-08
2.54603e-06
-7.86519e-08
-4.42431e-08
2.51207e-06
8.45739e-08
-4.84099e-08
2.43057e-06
2.85525e-07
-5.27682e-08
2.2931e-06
5.81352e-07
-5.69996e-08
2.09279e-06
1.00319e-06
-6.16693e-08
1.81975e-06
1.59923e-06
-6.5919e-08
1.47354e-06
2.40168e-06
-6.8571e-08
1.073e-06
3.3761e-06
-6.78797e-08
6.64592e-07
4.34e-06
-6.19476e-08
3.17055e-07
4.88824e-06
-4.98338e-08
7.97588e-08
4.45299e-06
-3.31235e-08
2.27556e-06
-1.1966e-08
3.66557e-08
-1.61181e-07
-3.7919e-09
1.25888e-07
-4.14388e-07
-8.63732e-09
2.46641e-07
-6.03036e-07
-1.09047e-08
3.862e-07
-7.45682e-07
-1.10692e-08
5.36591e-07
-8.53515e-07
-9.72972e-09
6.92507e-07
-9.33625e-07
-7.54442e-09
8.50431e-07
-9.90932e-07
-5.16761e-09
1.0081e-06
-1.02907e-06
-3.16036e-09
1.16407e-06
-1.05078e-06
-1.90089e-09
1.31738e-06
-1.0582e-06
-1.58797e-09
1.46752e-06
-1.0533e-06
-2.04285e-09
1.61257e-06
-1.03773e-06
-3.10291e-09
1.75176e-06
-1.01148e-06
-4.84077e-09
1.88376e-06
-9.75372e-07
-7.01344e-09
2.00717e-06
-9.29908e-07
-9.50673e-09
2.12047e-06
-8.75323e-07
-1.22335e-08
2.22197e-06
-8.11587e-07
-1.51334e-08
2.30981e-06
-7.38334e-07
-1.81677e-08
2.38187e-06
-6.54743e-07
-2.1314e-08
2.43573e-06
-5.59388e-07
-2.45641e-08
2.46923e-06
-4.49964e-07
-2.79907e-08
2.47987e-06
-3.23433e-07
-3.15017e-08
2.46528e-06
-1.74952e-07
-3.52012e-08
2.4243e-06
1.5108e-09
-3.91929e-08
2.37382e-06
1.78383e-07
-4.33427e-08
2.27346e-06
4.33467e-07
-4.75979e-08
2.12393e-06
7.83052e-07
-5.21795e-08
1.91514e-06
1.26914e-06
-5.71765e-08
1.64242e-06
1.93373e-06
-6.17981e-08
1.31173e-06
2.79721e-06
-6.48583e-08
9.44293e-07
3.80813e-06
-6.46059e-08
5.81313e-07
4.76214e-06
-5.91691e-08
2.7822e-07
5.23904e-06
-4.77194e-08
7.08912e-08
4.69196e-06
-3.16576e-08
2.35769e-06
-1.12442e-08
4.75765e-08
-2.06022e-07
-2.74741e-09
1.58736e-07
-5.20321e-07
-5.24027e-09
3.00852e-07
-7.40173e-07
-4.99226e-09
4.57224e-07
-8.99407e-07
-2.65876e-09
6.20035e-07
-1.01725e-06
9.1177e-10
7.84618e-07
-1.10303e-06
4.81243e-09
9.48279e-07
-1.1628e-06
8.19865e-09
1.10953e-06
-1.20079e-06
1.04595e-08
1.2675e-06
-1.22006e-06
1.12933e-08
1.42124e-06
-1.22281e-06
1.08577e-08
1.57058e-06
-1.21213e-06
9.49105e-09
1.71333e-06
-1.18773e-06
7.23279e-09
1.84838e-06
-1.15095e-06
4.4193e-09
1.97429e-06
-1.10253e-06
1.23801e-09
2.08951e-06
-1.04296e-06
-2.17412e-09
2.19237e-06
-9.72476e-07
-5.72292e-09
2.28115e-06
-8.91023e-07
-9.34709e-09
2.35398e-06
-7.98166e-07
-1.30104e-08
2.40894e-06
-6.93007e-07
-1.66964e-08
2.4438e-06
-5.73855e-07
-2.04086e-08
2.45711e-06
-4.39165e-07
-2.41117e-08
2.44719e-06
-2.8564e-07
-2.7878e-08
2.41353e-06
-1.09533e-07
-3.17734e-08
2.3701e-06
8.08855e-08
-3.59501e-08
2.29537e-06
2.93522e-07
-4.04204e-08
2.18411e-06
5.89691e-07
-4.49724e-08
2.02396e-06
9.93375e-07
-5.01801e-08
1.80683e-06
1.54194e-06
-5.56796e-08
1.53042e-06
2.27096e-06
-6.08248e-08
1.20275e-06
3.18922e-06
-6.43584e-08
8.4823e-07
4.22707e-06
-6.44319e-08
5.12053e-07
5.15747e-06
-5.9165e-08
2.41067e-07
5.55786e-06
-4.78478e-08
5.96515e-08
4.90514e-06
-3.17827e-08
2.4286e-06
-1.12582e-08
5.87054e-08
-2.63765e-07
-9.73629e-10
1.92425e-07
-6.5412e-07
6.8191e-11
3.55678e-07
-9.07146e-07
3.7098e-09
5.27686e-07
-1.08054e-06
9.12019e-09
7.01036e-07
-1.20579e-06
1.51803e-08
8.72184e-07
-1.29492e-06
2.07356e-08
1.03943e-06
-1.35487e-06
2.4819e-08
1.20201e-06
-1.39029e-06
2.69152e-08
1.35945e-06
-1.40448e-06
2.69712e-08
1.51123e-06
-1.40019e-06
2.56e-08
1.65565e-06
-1.37962e-06
2.3063e-08
1.79155e-06
-1.34329e-06
1.96615e-08
1.91731e-06
-1.2925e-06
1.5773e-08
2.03132e-06
-1.22815e-06
1.16032e-08
2.13194e-06
-1.15087e-06
7.29599e-09
2.21753e-06
-1.06103e-06
2.95343e-09
2.28651e-06
-9.58659e-07
-1.35147e-09
2.33737e-06
-8.43459e-07
-5.56758e-09
2.36874e-06
-7.14719e-07
-9.66178e-09
2.37983e-06
-5.71254e-07
-1.37052e-08
2.36971e-06
-4.11406e-07
-1.76362e-08
2.33879e-06
-2.331e-07
-2.16305e-08
2.28898e-06
-3.40151e-08
-2.57046e-08
2.23281e-06
1.67034e-07
-2.99852e-08
2.13959e-06
4.21441e-07
-3.47093e-08
2.00646e-06
7.62152e-07
-3.93351e-08
1.82638e-06
1.21826e-06
-4.48133e-08
1.59548e-06
1.82361e-06
-5.07827e-08
1.31723e-06
2.60584e-06
-5.66322e-08
1.00566e-06
3.56182e-06
-6.10365e-08
6.87891e-07
4.6068e-06
-6.19757e-08
4.05514e-07
5.49728e-06
-5.7444e-08
1.88522e-07
5.82166e-06
-4.6814e-08
4.50924e-08
5.07975e-06
-3.11891e-08
2.48463e-06
-1.09392e-08
7.11012e-08
-3.3625e-07
1.37437e-09
2.26758e-07
-8.16787e-07
7.00063e-09
4.115e-07
-1.10667e-06
1.47746e-08
6.0003e-07
-1.2927e-06
2.36234e-08
7.8399e-07
-1.42198e-06
3.22284e-08
9.61392e-07
-1.51155e-06
3.92173e-08
1.13175e-06
-1.56887e-06
4.36297e-08
1.29509e-06
-1.59883e-06
4.51963e-08
1.45098e-06
-1.60482e-06
4.44419e-08
1.5994e-06
-1.5906e-06
4.19929e-08
1.73814e-06
-1.55663e-06
3.82642e-08
1.86592e-06
-1.50485e-06
3.37737e-08
1.98115e-06
-1.43657e-06
2.88266e-08
2.08223e-06
-1.35286e-06
2.36332e-08
2.16758e-06
-1.25457e-06
1.83416e-08
2.23576e-06
-1.14227e-06
1.30599e-08
2.28548e-06
-1.01626e-06
7.8689e-09
2.31572e-06
-8.76522e-07
2.82679e-09
2.32579e-06
-7.22767e-07
-2.02975e-09
2.31593e-06
-5.54662e-07
-6.73486e-09
2.28707e-06
-3.71265e-07
-1.12811e-08
2.24129e-06
-1.71726e-07
-1.56021e-08
2.18271e-06
4.45258e-08
-1.99658e-08
2.1059e-06
2.68306e-07
-2.44648e-08
1.99402e-06
5.62108e-07
-2.8794e-08
1.84265e-06
9.46858e-07
-3.33411e-08
1.64913e-06
1.45029e-06
-3.85176e-08
1.41432e-06
2.10269e-06
-4.42771e-08
1.14508e-06
2.92536e-06
-5.02898e-08
8.57225e-07
3.9051e-06
-5.5434e-08
5.77856e-07
4.94379e-06
-5.76268e-08
3.43145e-07
5.78644e-06
-5.44541e-08
1.65162e-07
6.04453e-06
-4.49002e-08
4.14607e-08
5.23323e-06
-2.97871e-08
2.53612e-06
-1.00268e-08
8.10332e-08
-4.22252e-07
4.95953e-09
2.52367e-07
-1.00507e-06
1.69375e-08
4.50936e-07
-1.33504e-06
2.97879e-08
6.47741e-07
-1.53194e-06
4.24233e-08
8.34537e-07
-1.66231e-06
5.35305e-08
1.01126e-06
-1.74998e-06
6.17103e-08
1.17875e-06
-1.80259e-06
6.62268e-08
1.33782e-06
-1.82514e-06
6.72277e-08
1.48866e-06
-1.82137e-06
6.57141e-08
1.63009e-06
-1.79439e-06
6.2359e-08
1.76111e-06
-1.74536e-06
5.77019e-08
1.88028e-06
-1.67628e-06
5.22601e-08
1.98609e-06
-1.58871e-06
4.63369e-08
2.07709e-06
-1.484e-06
4.01428e-08
2.15194e-06
-1.36325e-06
3.38326e-08
2.20948e-06
-1.22734e-06
2.75243e-08
2.2488e-06
-1.07689e-06
2.13083e-08
2.26934e-06
-9.12316e-07
1.52528e-08
2.27095e-06
-7.33781e-07
9.40327e-09
2.25382e-06
-5.41405e-07
3.87384e-09
2.21924e-06
-3.35168e-07
-1.5144e-09
2.16953e-06
-1.15273e-07
-6.74303e-09
2.11021e-06
1.15831e-07
-1.1981e-08
2.01781e-06
3.77853e-07
-1.71466e-08
1.88399e-06
7.17721e-07
-2.17941e-08
1.70739e-06
1.15002e-06
-2.65594e-08
1.49198e-06
1.69717e-06
-3.14735e-08
1.24662e-06
2.38469e-06
-3.66325e-08
9.83911e-07
3.23004e-06
-4.19703e-08
7.20037e-07
4.21579e-06
-4.68148e-08
4.78257e-07
5.23505e-06
-4.94728e-08
2.88808e-07
6.02341e-06
-4.75183e-08
1.48331e-07
6.22458e-06
-3.95685e-08
4.09395e-08
5.36662e-06
-2.5997e-08
2.58525e-06
-8.18951e-09
8.68366e-08
-5.18947e-07
9.84943e-09
2.6289e-07
-1.21086e-06
2.97273e-08
4.59532e-07
-1.57984e-06
4.81597e-08
6.48199e-07
-1.78511e-06
6.4494e-08
8.23284e-07
-1.91518e-06
7.77806e-08
9.86607e-07
-2.00021e-06
8.69064e-08
1.14027e-06
-2.04779e-06
9.15275e-08
1.28576e-06
-2.06285e-06
9.22186e-08
1.42372e-06
-2.04968e-06
9.03532e-08
1.55297e-06
-2.01012e-06
8.64739e-08
1.67285e-06
-1.94653e-06
8.128e-08
1.78221e-06
-1.86085e-06
7.52109e-08
1.8798e-06
-1.75486e-06
6.856e-08
1.96438e-06
-1.63013e-06
6.15405e-08
2.03486e-06
-1.48805e-06
5.4314e-08
2.09036e-06
-1.32985e-06
4.70157e-08
2.13028e-06
-1.15656e-06
3.97538e-08
2.15441e-06
-9.69062e-07
3.26121e-08
2.16309e-06
-7.68112e-07
2.56476e-08
2.15731e-06
-5.54513e-07
1.88906e-08
2.13749e-06
-3.27771e-07
1.24178e-08
2.10188e-06
-8.56435e-08
5.97561e-09
2.04895e-06
1.69316e-07
-5.5263e-10
1.95308e-06
4.80672e-07
-6.95384e-09
1.81526e-06
8.6825e-07
-1.27093e-08
1.63426e-06
1.34967e-06
-1.8654e-08
1.40884e-06
1.94709e-06
-2.44964e-08
1.14808e-06
2.67543e-06
-2.99856e-08
8.75578e-07
3.53739e-06
-3.48435e-08
6.20872e-07
4.50916e-06
-3.86656e-08
4.09222e-07
5.4872e-06
-4.05124e-08
2.58941e-07
6.21237e-06
-3.8688e-08
1.46593e-07
6.36896e-06
-3.20415e-08
4.48026e-08
5.48903e-06
-2.0622e-08
2.63601e-06
-5.95798e-09
8.17154e-08
-6.17053e-07
1.63815e-08
2.39462e-07
-1.41434e-06
4.57317e-08
4.08332e-07
-1.81868e-06
6.99568e-08
5.65054e-07
-2.03141e-06
8.95756e-08
7.07044e-07
-2.16174e-06
1.04558e-07
8.37519e-07
-2.24516e-06
1.1447e-07
9.59706e-07
-2.28946e-06
1.19488e-07
1.07581e-06
-2.29947e-06
1.20504e-07
1.18666e-06
-2.27934e-06
1.18809e-07
1.29228e-06
-2.23084e-06
1.15097e-07
1.39226e-06
-2.15649e-06
1.09979e-07
1.48591e-06
-2.05836e-06
1.03847e-07
1.57246e-06
-1.93838e-06
9.69685e-08
1.65115e-06
-1.79836e-06
8.95459e-08
1.72135e-06
-1.63999e-06
8.17376e-08
1.78265e-06
-1.46482e-06
7.36751e-08
1.83493e-06
-1.27432e-06
6.54688e-08
1.87855e-06
-1.06988e-06
5.72071e-08
1.91424e-06
-8.52763e-07
4.8953e-08
1.94069e-06
-6.21687e-07
4.0731e-08
1.95298e-06
-3.72533e-07
3.24765e-08
1.94427e-06
-1.0106e-07
2.41221e-08
1.90687e-06
1.90828e-07
1.58911e-08
1.8311e-06
5.48991e-07
7.4598e-09
1.70956e-06
9.90279e-07
-4.85304e-10
1.5373e-06
1.53066e-06
-8.73541e-09
1.31111e-06
2.19004e-06
-1.67575e-08
1.03571e-06
2.97487e-06
-2.40415e-08
7.36935e-07
3.86609e-06
-2.99222e-08
4.63339e-07
4.81642e-06
-3.36631e-08
2.65228e-07
5.71996e-06
-3.46413e-08
1.62576e-07
6.34725e-06
-3.22163e-08
1.05911e-07
6.45194e-06
-2.63067e-08
3.62573e-08
5.57572e-06
-1.70252e-08
2.67734e-06
-5.07848e-09
6.39834e-08
-7.05131e-07
2.40853e-08
1.81183e-07
-1.59488e-06
6.33272e-08
3.01123e-07
-2.03131e-06
9.26869e-08
4.0955e-07
-2.25455e-06
1.14707e-07
5.05203e-07
-2.38811e-06
1.30718e-07
5.91389e-07
-2.47264e-06
1.41288e-07
6.723e-07
-2.51743e-06
1.47054e-07
7.50917e-07
-2.52708e-06
1.48991e-07
8.28564e-07
-2.50532e-06
1.48333e-07
9.06183e-07
-2.45414e-06
1.45674e-07
9.84124e-07
-2.37594e-06
1.41515e-07
1.06243e-06
-2.27286e-06
1.3619e-07
1.14102e-06
-2.14691e-06
1.29932e-07
1.21982e-06
-2.00008e-06
1.22914e-07
1.29886e-06
-1.8343e-06
1.15274e-07
1.37838e-06
-1.65147e-06
1.07129e-07
1.459e-06
-1.45351e-06
9.8575e-08
1.54001e-06
-1.24058e-06
8.96876e-08
1.61797e-06
-1.01121e-06
8.04787e-08
1.68683e-06
-7.61478e-07
7.09321e-08
1.738e-06
-4.84635e-07
6.09306e-08
1.76128e-06
-1.74686e-07
5.03493e-08
1.74235e-06
1.70344e-07
3.94147e-08
1.69262e-06
5.70451e-07
2.82678e-08
1.59159e-06
1.0739e-06
1.7417e-08
1.43185e-06
1.68435e-06
6.05257e-09
1.21425e-06
2.4127e-06
-5.06536e-09
9.44614e-07
3.25969e-06
-1.51823e-08
6.44697e-07
4.18936e-06
-2.33461e-08
3.65676e-07
5.12394e-06
-2.84943e-08
1.7229e-07
5.94333e-06
-2.99804e-08
9.04397e-08
6.45682e-06
-2.77182e-08
6.56526e-08
6.49921e-06
-2.24829e-08
2.85891e-08
5.62735e-06
-1.45639e-08
2.71036e-06
-4.42837e-09
4.304e-08
-7.79803e-07
3.16222e-08
1.18322e-07
-1.74984e-06
7.96695e-08
1.92897e-07
-2.21879e-06
1.12905e-07
2.59851e-07
-2.45787e-06
1.36362e-07
3.17722e-07
-2.5988e-06
1.52818e-07
3.69391e-07
-2.68824e-06
1.63926e-07
4.19521e-07
-2.73825e-06
1.70686e-07
4.71585e-07
-2.75312e-06
1.73983e-07
5.27504e-07
-2.73616e-06
1.74914e-07
5.8891e-07
-2.68947e-06
1.73923e-07
6.56798e-07
-2.61524e-06
1.7141e-07
7.31824e-07
-2.51553e-06
1.67642e-07
8.14455e-07
-2.39234e-06
1.62801e-07
9.05097e-07
-2.24774e-06
1.57018e-07
1.0042e-06
-2.08381e-06
1.504e-07
1.11186e-06
-1.90216e-06
1.43032e-07
1.22652e-06
-1.70313e-06
1.3496e-07
1.34429e-06
-1.48453e-06
1.26181e-07
1.45843e-06
-1.24201e-06
1.16663e-07
1.56043e-06
-9.69762e-07
1.06279e-07
1.64054e-06
-6.59609e-07
9.48697e-08
1.68554e-06
-3.02037e-07
8.23574e-08
1.67809e-06
1.08943e-07
6.88448e-08
1.63282e-06
5.6075e-07
5.49824e-08
1.53373e-06
1.13229e-06
4.06968e-08
1.37342e-06
1.81906e-06
2.5598e-08
1.15225e-06
2.62316e-06
1.07222e-08
8.82455e-07
3.5324e-06
-2.90674e-09
5.90088e-07
4.49587e-06
-1.41368e-08
3.21622e-07
5.41419e-06
-2.17835e-08
1.38118e-07
6.15194e-06
-2.51057e-08
6.02828e-08
6.55887e-06
-2.42132e-08
4.11464e-08
6.53832e-06
-1.99692e-08
2.34666e-08
5.65789e-06
-1.28566e-08
2.73767e-06
-3.84276e-09
2.59602e-08
-8.43747e-07
3.79749e-08
7.16937e-08
-1.88834e-06
9.27617e-08
1.18359e-07
-2.39393e-06
1.2847e-07
1.6248e-07
-2.65446e-06
1.52472e-07
2.02942e-07
-2.80821e-06
1.68942e-07
2.4102e-07
-2.9067e-06
1.80383e-07
2.80211e-07
-2.96562e-06
1.88176e-07
3.24051e-07
-2.98996e-06
1.92993e-07
3.74701e-07
-2.98257e-06
1.95758e-07
4.34151e-07
-2.94568e-06
1.96758e-07
5.03626e-07
-2.88101e-06
1.96295e-07
5.84056e-07
-2.79053e-06
1.94575e-07
6.76135e-07
-2.67615e-06
1.91735e-07
7.80472e-07
-2.53995e-06
1.87873e-07
8.96788e-07
-2.38319e-06
1.83059e-07
1.02308e-06
-2.20574e-06
1.77294e-07
1.15542e-06
-2.00602e-06
1.70549e-07
1.28877e-06
-1.78064e-06
1.62759e-07
1.41734e-06
-1.5244e-06
1.53822e-07
1.53276e-06
-1.22868e-06
1.43505e-07
1.62345e-06
-8.81825e-07
1.31523e-07
1.67618e-06
-4.72495e-07
1.17736e-07
1.6804e-06
2.44739e-09
1.02273e-07
1.63585e-06
5.19389e-07
8.59191e-08
1.52905e-06
1.17032e-06
6.87758e-08
1.35754e-06
1.94051e-06
5.00613e-08
1.12762e-06
2.82191e-06
3.11733e-08
8.57319e-07
3.78919e-06
1.35181e-08
5.75094e-07
4.77955e-06
-1.45756e-09
3.2323e-07
5.67844e-06
-1.23846e-08
1.52199e-07
6.34146e-06
-1.84816e-08
6.92813e-08
6.66164e-06
-1.98561e-08
3.86198e-08
6.58596e-06
-1.69736e-08
2.25652e-08
5.6846e-06
-1.06584e-08
2.76305e-06
-2.81492e-09
1.55434e-08
-9.0155e-07
4.22519e-08
4.61221e-08
-2.02002e-06
1.01096e-07
8.24934e-08
-2.56817e-06
1.37865e-07
1.22618e-07
-2.85632e-06
1.61732e-07
1.6555e-07
-3.02916e-06
1.78012e-07
2.10843e-07
-3.14169e-06
1.89693e-07
2.59344e-07
-3.21245e-06
1.98331e-07
3.1304e-07
-3.24814e-06
2.0448e-07
3.73644e-07
-3.2521e-06
2.08927e-07
4.43124e-07
-3.22697e-06
2.11815e-07
5.22933e-07
-3.1742e-06
2.13379e-07
6.14027e-07
-3.09538e-06
2.13758e-07
7.16609e-07
-2.99178e-06
2.13045e-07
8.29942e-07
-2.86456e-06
2.11281e-07
9.52253e-07
-2.71398e-06
2.08483e-07
1.08031e-06
-2.53843e-06
2.04624e-07
1.21091e-06
-2.33626e-06
1.99642e-07
1.34093e-06
-2.10418e-06
1.93525e-07
1.46515e-06
-1.83473e-06
1.86101e-07
1.57605e-06
-1.51661e-06
1.77036e-07
1.66321e-06
-1.13493e-06
1.65951e-07
1.71418e-06
-6.7598e-07
1.52513e-07
1.71647e-06
-1.36597e-07
1.36757e-07
1.66763e-06
4.48294e-07
1.19934e-07
1.55833e-06
1.17929e-06
1.00333e-07
1.38003e-06
2.04026e-06
7.85473e-08
1.1431e-06
3.00277e-06
5.60792e-08
8.69706e-07
4.02811e-06
3.44773e-08
5.91748e-07
5.04207e-06
1.54453e-08
3.5404e-07
5.91553e-06
6.17997e-10
1.93248e-07
6.51143e-06
-9.18452e-09
1.02028e-07
6.76653e-06
-1.36712e-08
5.37105e-08
6.64696e-06
-1.26824e-08
2.6056e-08
5.71977e-06
-7.5079e-09
2.79034e-06
-1.22739e-09
9.71376e-09
-9.55415e-07
4.41446e-08
3.43708e-08
-2.14865e-06
1.03967e-07
7.1028e-08
-2.74507e-06
1.40235e-07
1.18575e-07
-3.06709e-06
1.63219e-07
1.75068e-07
-3.26466e-06
1.79013e-07
2.39033e-07
-3.39664e-06
1.90985e-07
3.09361e-07
-3.48333e-06
2.0055e-07
3.85906e-07
-3.5327e-06
2.08012e-07
4.6879e-07
-3.54902e-06
2.1404e-07
5.58567e-07
-3.53535e-06
2.18604e-07
6.55769e-07
-3.4933e-06
2.219e-07
7.60349e-07
-3.42401e-06
2.24043e-07
8.71409e-07
-3.32796e-06
2.25121e-07
9.86958e-07
-3.20527e-06
2.25161e-07
1.1051e-06
-3.05629e-06
2.24173e-07
1.22447e-06
-2.87993e-06
2.2213e-07
1.34336e-06
-2.67417e-06
2.1903e-07
1.4594e-06
-2.43504e-06
2.14825e-07
1.56913e-06
-2.1538e-06
2.09347e-07
1.66681e-06
-1.81653e-06
2.02238e-07
1.74406e-06
-1.40521e-06
1.9304e-07
1.78964e-06
-9.02687e-07
1.81125e-07
1.78651e-06
-2.99757e-07
1.66294e-07
1.70372e-06
3.81161e-07
1.49923e-07
1.59199e-06
1.16102e-06
1.30006e-07
1.4197e-06
2.10588e-06
1.06673e-07
1.18844e-06
3.15204e-06
8.19835e-08
9.18851e-07
4.24003e-06
5.76715e-08
6.4591e-07
5.27945e-06
3.55545e-08
4.15058e-07
6.12896e-06
1.74252e-08
2.53413e-07
6.66898e-06
4.09877e-09
1.48278e-07
6.87544e-06
-3.76896e-09
7.94556e-08
6.72107e-06
-5.28853e-09
3.3005e-08
5.76841e-06
-2.1939e-09
2.82219e-06
1.154e-09
8.16701e-09
-1.00703e-06
4.3448e-08
3.39646e-08
-2.27523e-06
1.00779e-07
7.72325e-08
-2.92311e-06
1.34774e-07
1.37604e-07
-3.28325e-06
1.55786e-07
2.11909e-07
-3.5094e-06
1.70435e-07
2.97163e-07
-3.66408e-06
1.82192e-07
3.9104e-07
-3.76961e-06
1.92397e-07
4.92079e-07
-3.83472e-06
2.00991e-07
5.98549e-07
-3.86399e-06
2.08493e-07
7.08871e-07
-3.86032e-06
2.14642e-07
8.21959e-07
-3.82594e-06
2.19548e-07
9.36206e-07
-3.76155e-06
2.23302e-07
1.05042e-06
-3.66808e-06
2.25908e-07
1.16367e-06
-3.54598e-06
2.27463e-07
1.27503e-06
-3.39567e-06
2.28029e-07
1.38381e-06
-3.21635e-06
2.27643e-07
1.48885e-06
-3.00556e-06
2.26343e-07
1.58817e-06
-2.75842e-06
2.2406e-07
1.67959e-06
-2.46586e-06
2.20636e-07
1.75968e-06
-2.11234e-06
2.15723e-07
1.82207e-06
-1.67637e-06
2.08774e-07
1.85566e-06
-1.13558e-06
1.99301e-07
1.84351e-06
-4.74349e-07
1.86753e-07
1.75028e-06
3.03317e-07
1.71073e-07
1.63219e-06
1.12687e-06
1.52236e-07
1.46032e-06
2.14808e-06
1.2968e-07
1.2347e-06
3.27306e-06
1.04599e-07
9.73547e-07
4.42222e-06
7.89635e-08
7.09578e-07
5.48856e-06
5.4864e-08
4.82305e-07
6.32191e-06
3.43291e-08
3.13092e-07
6.81994e-06
1.82542e-08
1.91217e-07
6.98985e-06
7.46473e-09
1.0226e-07
6.80665e-06
3.37727e-09
3.84817e-08
5.82824e-06
3.9518e-09
2.85694e-06
3.72815e-09
1.08929e-08
-1.05854e-06
4.06128e-08
4.46212e-08
-2.40156e-06
9.26048e-08
9.99004e-08
-3.10104e-06
1.22649e-07
1.75448e-07
-3.49974e-06
1.40939e-07
2.67208e-07
-3.75493e-06
1.53762e-07
3.7097e-07
-3.93233e-06
1.64485e-07
4.83176e-07
-4.05617e-06
1.74362e-07
6.01224e-07
-4.1359e-06
1.83124e-07
7.22191e-07
-4.17621e-06
1.91262e-07
8.43726e-07
-4.18024e-06
1.98392e-07
9.64509e-07
-4.15108e-06
2.04359e-07
1.08306e-06
-4.08939e-06
2.09287e-07
1.19849e-06
-3.99675e-06
2.13238e-07
1.31026e-06
-3.87407e-06
2.16314e-07
1.41755e-06
-3.72151e-06
2.18557e-07
1.51922e-06
-3.53802e-06
2.19985e-07
1.61414e-06
-3.32106e-06
2.20587e-07
1.701e-06
-3.06562e-06
2.20337e-07
1.77779e-06
-2.76178e-06
2.19132e-07
1.84157e-06
-2.39303e-06
2.16911e-07
1.88737e-06
-1.93524e-06
2.13079e-07
1.90578e-06
-1.36099e-06
2.06996e-07
1.88384e-06
-6.50311e-07
1.97909e-07
1.81003e-06
1.91659e-07
1.85465e-07
1.69136e-06
1.07607e-06
1.6948e-07
1.5203e-06
2.17052e-06
1.48621e-07
1.29885e-06
3.37018e-06
1.24336e-07
1.04073e-06
4.5818e-06
9.85465e-08
7.81344e-07
5.67448e-06
7.34625e-08
5.53934e-07
6.49807e-06
5.125e-08
3.74028e-07
6.96686e-06
3.29855e-08
2.34399e-07
7.10992e-06
1.95612e-08
1.25258e-07
6.90301e-06
1.27777e-08
4.41408e-08
5.89888e-06
1.04672e-08
2.89475e-06
6.33363e-09
1.56828e-08
-1.11113e-06
3.69089e-08
5.9561e-08
-2.52808e-06
8.26412e-08
1.27471e-07
-3.27718e-06
1.08225e-07
2.16728e-07
-3.71247e-06
1.23476e-07
3.22956e-07
-3.99515e-06
1.33991e-07
4.40993e-07
-4.19359e-06
1.43223e-07
5.66243e-07
-4.33367e-06
1.52246e-07
6.95187e-07
-4.42542e-06
1.60579e-07
8.24415e-07
-4.47413e-06
1.6869e-07
9.51971e-07
-4.48373e-06
1.75934e-07
1.07661e-06
-4.45806e-06
1.82338e-07
1.19734e-06
-4.39812e-06
1.88008e-07
1.31326e-06
-4.30564e-06
1.92969e-07
1.42345e-06
-4.18151e-06
1.9725e-07
1.52697e-06
-4.02589e-06
2.0086e-07
1.62313e-06
-3.83797e-06
2.03807e-07
1.71117e-06
-3.61518e-06
2.06091e-07
1.78967e-06
-3.35181e-06
2.07696e-07
1.85619e-06
-3.03722e-06
2.08936e-07
1.90805e-06
-2.65397e-06
2.09078e-07
1.94095e-06
-2.17608e-06
2.07949e-07
1.94771e-06
-1.57268e-06
2.04938e-07
1.91883e-06
-8.20643e-07
1.99216e-07
1.84601e-06
7.42481e-08
1.90239e-07
1.73244e-06
1.01215e-06
1.77495e-07
1.56346e-06
2.17992e-06
1.59591e-07
1.34057e-06
3.45555e-06
1.37522e-07
1.08474e-06
4.72465e-06
1.12984e-07
8.27262e-07
5.84363e-06
8.83442e-08
5.97457e-07
6.66205e-06
6.58209e-08
4.08466e-07
7.10936e-06
4.64954e-08
2.56311e-07
7.23086e-06
3.12137e-08
1.34969e-07
7.00243e-06
2.19244e-08
4.51375e-08
5.97215e-06
1.65619e-08
2.93135e-06
8.53623e-09
1.91058e-08
-1.16338e-06
3.31404e-08
7.01603e-08
-2.65171e-06
7.25805e-08
1.47058e-07
-3.44772e-06
9.36423e-08
2.46254e-07
-3.9174e-06
1.05736e-07
3.62988e-07
-4.22597e-06
1.14095e-07
4.91439e-07
-4.44391e-06
1.21874e-07
6.25924e-07
-4.59815e-06
1.30002e-07
7.62331e-07
-4.69961e-06
1.37786e-07
8.9736e-07
-4.7547e-06
1.45543e-07
1.02903e-06
-4.76817e-06
1.52772e-07
1.156e-06
-4.74443e-06
1.59402e-07
1.27725e-06
-4.68487e-06
1.65502e-07
1.39189e-06
-4.59135e-06
1.71076e-07
1.49906e-06
-4.46482e-06
1.76137e-07
1.59801e-06
-4.30552e-06
1.80693e-07
1.68804e-06
-4.11275e-06
1.8474e-07
1.76831e-06
-3.88373e-06
1.88276e-07
1.83701e-06
-3.61234e-06
1.91837e-07
1.89285e-06
-3.28763e-06
1.94564e-07
1.93309e-06
-2.89092e-06
1.96711e-07
1.95353e-06
-2.3945e-06
1.97988e-07
1.94845e-06
-1.76547e-06
1.97865e-07
1.91106e-06
-9.78725e-07
1.95477e-07
1.83696e-06
-4.1649e-08
1.89999e-07
1.72576e-06
9.42729e-07
1.80631e-07
1.55898e-06
2.18075e-06
1.65952e-07
1.33984e-06
3.52843e-06
1.46263e-07
1.08891e-06
4.85218e-06
1.23398e-07
8.34855e-07
5.99802e-06
9.96538e-08
6.05567e-07
6.81394e-06
7.73953e-08
4.1291e-07
7.24432e-06
5.76926e-08
2.54971e-07
7.34755e-06