/*--------------------------------*- C++ -*----------------------------------*\
  =========                 |
  \\      /  F ield         | OpenFOAM: The Open Source CFD Toolbox
   \\    /   O peration     | Website:  https://openfoam.org
    \\  /    A nd           | Version:  8
     \\/     M anipulation  |
\*---------------------------------------------------------------------------*/
FoamFile
{
    version     2.0;
    format      ascii;
    class       volScalarField;
    location    "1000";
    object      T;
}
// * * * * * * * * * * * * * * * * * * * * * * * * * * * * * * * * * * * * * //

dimensions      [0 0 0 1 0 0 0];

internalField   nonuniform List<scalar> 
78750
(
500.003
500.009
500.016
500.022
500.028
500.034
500.04
500.046
500.052
500.058
500.064
500.069
500.075
500.08
500.086
500.091
500.096
500.101
500.107
500.111
500.116
500.121
500.127
500.133
500.14
500.15
500.169
500.213
500.326
500.649
501.603
504.295
510.88
523.39
540.754
500.006
500.018
500.029
500.041
500.054
500.066
500.078
500.09
500.102
500.113
500.125
500.136
500.147
500.157
500.167
500.177
500.187
500.196
500.205
500.214
500.222
500.231
500.24
500.25
500.263
500.284
500.324
500.413
500.628
501.175
502.566
505.925
513.105
525.45
541.626
500.01
500.031
500.052
500.073
500.095
500.116
500.137
500.158
500.178
500.198
500.217
500.236
500.253
500.27
500.286
500.301
500.316
500.329
500.342
500.355
500.367
500.379
500.393
500.41
500.437
500.485
500.581
500.79
501.253
502.283
504.519
508.996
516.905
528.654
542.83
500.016
500.048
500.08
500.112
500.144
500.176
500.207
500.237
500.267
500.295
500.322
500.348
500.372
500.395
500.417
500.437
500.455
500.473
500.489
500.505
500.52
500.537
500.556
500.583
500.627
500.707
500.864
501.185
501.853
503.241
506.001
511.048
519.204
530.459
543.475
500.022
500.067
500.111
500.155
500.199
500.241
500.283
500.323
500.361
500.397
500.432
500.464
500.494
500.523
500.549
500.573
500.596
500.617
500.637
500.656
500.676
500.699
500.727
500.769
500.839
500.964
501.198
501.652
502.547
504.286
507.494
512.938
521.152
531.903
543.979
500.03
500.089
500.147
500.204
500.259
500.313
500.364
500.413
500.459
500.502
500.543
500.581
500.617
500.649
500.68
500.708
500.735
500.76
500.784
500.808
500.833
500.863
500.904
500.964
501.064
501.238
501.551
502.132
503.228
505.237
508.736
514.379
522.486
532.789
544.276
500.039
500.115
500.189
500.259
500.327
500.39
500.451
500.507
500.56
500.61
500.656
500.699
500.739
500.776
500.811
500.843
500.874
500.903
500.932
500.962
500.996
501.037
501.092
501.173
501.3
501.508
501.871
502.541
503.78
506.001
509.755
515.588
523.651
533.608
544.557
500.051
500.149
500.239
500.324
500.403
500.476
500.544
500.608
500.667
500.722
500.773
500.821
500.865
500.907
500.946
500.983
501.019
501.054
501.09
501.129
501.175
501.233
501.312
501.426
501.598
501.869
502.329
503.138
504.553
506.959
510.86
516.72
524.518
534.058
544.698
500.067
500.192
500.301
500.399
500.489
500.571
500.646
500.717
500.781
500.842
500.898
500.95
501
501.046
501.09
501.133
501.175
501.218
501.263
501.314
501.374
501.449
501.548
501.684
501.877
502.174
502.679
503.551
505.052
507.572
511.598
517.533
525.256
534.563
544.877
500.089
500.249
500.378
500.488
500.587
500.676
500.759
500.835
500.906
500.972
501.033
501.091
501.146
501.198
501.249
501.299
501.35
501.403
501.461
501.529
501.61
501.712
501.845
502.023
502.272
502.656
503.281
504.302
505.969
508.643
512.761
518.622
526.001
534.899
544.974
500.116
500.317
500.468
500.588
500.694
500.791
500.88
500.962
501.039
501.111
501.179
501.243
501.305
501.365
501.424
501.483
501.544
501.609
501.681
501.764
501.862
501.984
502.138
502.338
502.622
503.069
503.778
504.905
506.688
509.465
513.635
519.429
526.608
535.264
545.098
500.147
500.395
500.569
500.7
500.812
500.915
501.009
501.098
501.182
501.261
501.336
501.409
501.479
501.549
501.619
501.69
501.764
501.845
501.934
502.037
502.158
502.304
502.483
502.718
503.062
503.589
504.399
505.649
507.569
510.469
514.679
520.309
527.115
535.436
545.131
500.181
500.477
500.674
500.814
500.932
501.04
501.142
501.237
501.329
501.416
501.501
501.583
501.665
501.746
501.828
501.913
502.003
502.1
502.208
502.33
502.47
502.636
502.841
503.121
503.525
504.118
504.991
506.296
508.258
511.188
515.393
520.868
527.386
535.458
545.123
500.216
500.558
500.776
500.925
501.047
501.161
501.269
501.372
501.471
501.568
501.663
501.757
501.851
501.946
502.043
502.145
502.252
502.368
502.496
502.638
502.802
502.999
503.247
503.581
504.048
504.721
505.709
507.147
509.209
512.147
516.236
521.401
527.496
535.339
545.045
500.247
500.631
500.867
501.022
501.148
501.266
501.379
501.488
501.595
501.7
501.805
501.909
502.014
502.121
502.231
502.346
502.467
502.597
502.738
502.898
503.087
503.315
503.603
503.99
504.534
505.304
506.407
507.988
510.211
513.239
517.215
521.966
527.503
534.975
544.858
500.274
500.691
500.941
501.104
501.233
501.352
501.468
501.581
501.692
501.803
501.913
502.025
502.138
502.254
502.374
502.499
502.63
502.773
502.933
503.118
503.339
503.611
503.953
504.401
505.019
505.892
507.128
508.875
511.271
514.395
518.246
522.554
527.539
534.626
544.641
500.297
500.742
501.005
501.175
501.307
501.427
501.544
501.658
501.772
501.885
501.999
502.115
502.233
502.355
502.481
502.614
502.757
502.917
503.099
503.312
503.57
503.89
504.292
504.81
505.514
506.494
507.861
509.749
512.282
515.487
519.218
523.14
527.681
534.428
544.47
500.317
500.787
501.064
501.244
501.382
501.505
501.622
501.738
501.853
501.968
502.085
502.203
502.324
502.449
502.581
502.723
502.878
503.052
503.252
503.489
503.78
504.143
504.6
505.188
505.985
507.083
508.586
510.617
513.272
516.515
520.09
523.705
527.926
534.4
544.37
500.334
500.826
501.118
501.31
501.458
501.588
501.712
501.831
501.949
502.067
502.186
502.307
502.433
502.564
502.704
502.854
503.019
503.202
503.414
503.667
503.979
504.374
504.875
505.521
506.394
507.599
509.231
511.395
514.157
517.4
520.817
524.202
528.196
534.443
544.315
500.348
500.861
501.169
501.373
501.532
501.673
501.805
501.934
502.06
502.186
502.312
502.441
502.574
502.714
502.861
503.017
503.187
503.377
503.596
503.858
504.184
504.601
505.143
505.848
506.78
508.058
509.797
512.079
514.927
518.16
521.434
524.639
528.465
534.529
544.285
500.361
500.894
501.219
501.438
501.609
501.761
501.903
502.042
502.178
502.314
502.45
502.589
502.73
502.876
503.029
503.192
503.369
503.565
503.79
504.059
504.395
504.827
505.395
506.137
507.12
508.465
510.288
512.654
515.561
518.779
521.948
525.028
528.739
534.662
544.289
500.374
500.926
501.267
501.5
501.685
501.848
502.002
502.151
502.297
502.441
502.586
502.732
502.881
503.034
503.195
503.365
503.55
503.754
503.987
504.266
504.611
505.056
505.642
506.409
507.423
508.806
510.694
513.154
516.112
519.309
522.39
525.366
528.98
534.779
544.295
500.385
500.956
501.313
501.561
501.758
501.933
502.098
502.257
502.412
502.565
502.718
502.871
503.028
503.189
503.357
503.535
503.727
503.94
504.184
504.474
504.833
505.296
505.904
506.698
507.746
509.187
511.141
513.637
516.615
519.787
522.802
525.709
529.247
534.935
544.323
500.395
500.985
501.356
501.618
501.828
502.016
502.192
502.36
502.524
502.685
502.846
503.007
503.171
503.339
503.515
503.701
503.902
504.124
504.378
504.679
505.053
505.531
506.157
506.968
508.038
509.513
511.522
514.086
517.092
520.239
523.197
526.049
529.532
535.13
544.375
500.406
501.012
501.397
501.673
501.897
502.096
502.282
502.459
502.631
502.8
502.968
503.136
503.308
503.484
503.668
503.862
504.072
504.304
504.569
504.883
505.273
505.77
506.42
507.266
508.372
509.88
511.927
514.525
517.538
520.66
523.576
526.384
529.816
535.326
544.432
500.415
501.038
501.438
501.727
501.963
502.173
502.368
502.554
502.733
502.91
503.085
503.261
503.439
503.623
503.814
504.016
504.234
504.475
504.751
505.081
505.493
506.024
506.715
507.606
508.761
510.313
512.386
514.999
518.019
521.114
523.976
526.742
530.14
535.567
544.511
500.424
501.061
501.475
501.778
502.027
502.247
502.451
502.644
502.831
503.015
503.197
503.38
503.566
503.757
503.956
504.165
504.389
504.636
504.918
505.254
505.676
506.225
506.95
507.895
509.126
510.764
512.895
515.53
518.544
521.589
524.393
527.119
530.484
535.838
544.608
500.431
501.084
501.512
501.828
502.089
502.319
502.53
502.731
502.925
503.115
503.305
503.495
503.689
503.888
504.094
504.31
504.541
504.793
505.078
505.414
505.834
506.378
507.103
508.064
509.331
511.024
513.236
515.935
518.953
521.979
524.76
527.46
530.783
536.04
544.667
500.44
501.108
501.549
501.879
502.15
502.389
502.609
502.816
503.017
503.214
503.411
503.609
503.81
504.017
504.232
504.457
504.697
504.956
505.246
505.583
505.993
506.514
507.202
508.124
509.368
511.065
513.3
516.043
519.117
522.182
524.978
527.673
530.983
536.214
544.73
500.451
501.137
501.591
501.933
502.214
502.462
502.689
502.903
503.111
503.315
503.518
503.723
503.933
504.148
504.373
504.608
504.859
505.131
505.433
505.778
506.187
506.693
507.348
508.212
509.376
510.994
513.194
515.954
519.079
522.219
525.061
527.769
531.079
536.301
544.765
500.461
501.165
501.635
501.989
502.281
502.536
502.771
502.993
503.207
503.418
503.628
503.84
504.057
504.282
504.516
504.765
505.032
505.322
505.645
506.011
506.438
506.948
507.582
508.394
509.476
511
513.129
515.859
519.031
522.227
525.11
527.835
531.149
536.369
544.8
500.471
501.195
501.682
502.048
502.349
502.612
502.854
503.083
503.304
503.521
503.738
503.958
504.183
504.416
504.662
504.925
505.211
505.526
505.881
506.287
506.756
507.302
507.958
508.757
509.776
511.192
513.201
515.89
519.06
522.287
525.207
527.95
531.283
536.515
544.873
500.481
501.225
501.73
502.109
502.418
502.689
502.937
503.173
503.4
503.624
503.848
504.074
504.307
504.55
504.807
505.085
505.39
505.733
506.126
506.587
507.128
507.759
508.495
509.354
510.415
511.848
513.824
516.431
519.545
522.708
525.537
528.234
531.572
536.797
544.995
500.494
501.259
501.778
502.168
502.486
502.764
503.02
503.262
503.496
503.726
503.956
504.189
504.429
504.68
504.947
505.238
505.563
505.935
506.371
506.894
507.523
508.273
509.144
510.149
511.359
512.906
514.949
517.539
520.519
523.467
526.121
528.738
532.049
537.192
545.157
500.508
501.294
501.825
502.224
502.551
502.837
503.099
503.348
503.588
503.824
504.06
504.299
504.544
504.802
505.076
505.377
505.715
506.11
506.585
507.173
507.903
508.792
509.834
511.022
512.403
514.087
516.197
518.759
521.581
524.29
526.77
529.31
532.578
537.615
545.317
500.519
501.323
501.868
502.277
502.612
502.905
503.174
503.429
503.675
503.917
504.159
504.403
504.654
504.916
505.195
505.5
505.844
506.247
506.74
507.363
508.16
509.168
510.39
511.796
513.403
515.261
517.444
519.946
522.577
525.075
527.411
529.872
533.08
537.989
545.45
500.531
501.351
501.907
502.325
502.669
502.969
503.244
503.505
503.756
504.005
504.253
504.504
504.761
505.027
505.308
505.612
505.953
506.351
506.836
507.454
508.261
509.311
510.638
512.231
514.065
516.136
518.422
520.899
523.42
525.78
528.01
530.398
533.524
538.295
545.555
500.539
501.373
501.942
502.373
502.725
503.032
503.313
503.579
503.837
504.092
504.348
504.606
504.87
505.143
505.428
505.731
506.066
506.449
506.909
507.488
508.243
509.277
510.643
512.327
514.298
516.522
518.948
521.484
523.96
526.264
528.46
530.818
533.891
538.544
545.63
500.547
501.394
501.975
502.417
502.778
503.093
503.38
503.653
503.918
504.181
504.445
504.713
504.987
505.268
505.559
505.862
506.192
506.565
506.995
507.521
508.203
509.143
510.419
512.082
514.104
516.424
518.919
521.483
524.015
526.376
528.598
530.937
533.954
538.546
545.621
500.556
501.417
502.01
502.464
502.837
503.16
503.455
503.735
504.009
504.281
504.555
504.835
505.122
505.418
505.723
506.038
506.364
506.709
507.088
507.531
508.088
508.819
509.864
511.338
513.29
515.7
518.427
521.231
523.91
526.342
528.585
530.911
533.895
538.468
545.578
500.561
501.433
502.041
502.508
502.89
503.222
503.525
503.813
504.095
504.378
504.664
504.956
505.258
505.571
505.894
506.228
506.572
506.926
507.292
507.68
508.12
508.667
509.387
510.396
511.888
514.036
516.796
519.925
523.089
525.959
528.437
530.827
533.8
538.37
545.527
500.569
501.46
502.086
502.569
502.962
503.303
503.615
503.914
504.208
504.503
504.804
505.114
505.435
505.77
506.119
506.481
506.856
507.239
507.625
508.012
508.415
508.861
509.392
510.083
511.084
512.611
514.825
517.702
520.961
524.169
527.034
529.703
532.853
537.65
545.258
500.579
501.489
502.132
502.627
503.029
503.378
503.701
504.011
504.317
504.627
504.944
505.274
505.619
505.982
506.363
506.763
507.181
507.611
508.046
508.474
508.891
509.31
509.76
510.303
511.095
512.332
514.157
516.705
519.876
523.264
526.373
529.15
532.371
537.358
545.196
500.592
501.525
502.186
502.692
503.103
503.461
503.793
504.115
504.436
504.762
505.099
505.452
505.823
506.217
506.636
507.081
507.551
508.043
508.551
509.061
509.559
510.025
510.475
510.973
511.626
512.625
514.266
516.758
519.926
523.31
526.37
529.118
532.381
537.421
545.253
500.606
501.562
502.235
502.75
503.168
503.533
503.875
504.208
504.543
504.885
505.242
505.618
506.019
506.445
506.899
507.384
507.906
508.468
509.069
509.699
510.338
510.964
511.591
512.275
513.12
514.282
515.954
518.263
521.148
524.103
526.769
529.417
532.761
537.883
545.479
500.618
501.591
502.276
502.798
503.222
503.595
503.946
504.289
504.637
504.996
505.373
505.773
506.198
506.649
507.127
507.638
508.192
508.8
509.476
510.22
511.018
511.852
512.723
513.666
514.768
516.158
517.967
520.219
522.74
525.239
527.621
530.15
533.449
538.394
545.643
500.626
501.609
502.301
502.83
503.26
503.639
503.997
504.35
504.71
505.086
505.482
505.904
506.35
506.82
507.311
507.827
508.381
508.994
509.692
510.498
511.413
512.428
513.539
514.746
516.088
517.645
519.492
521.61
523.862
526.082
528.277
530.708
533.931
538.719
545.741
500.63
501.617
502.314
502.85
503.287
503.671
504.036
504.398
504.77
505.161
505.578
506.02
506.487
506.972
507.469
507.979
508.513
509.096
509.763
510.551
511.488
512.579
513.833
515.249
516.828
518.577
520.51
522.583
524.689
526.754
528.842
531.199
534.337
538.99
545.828
500.631
501.62
502.32
502.86
503.303
503.694
504.065
504.436
504.82
505.226
505.662
506.127
506.616
507.119
507.625
508.131
508.644
509.187
509.794
510.512
511.384
512.449
513.727
515.213
516.882
518.745
520.765
522.875
524.977
527.02
529.087
531.431
534.545
539.125
545.866
500.63
501.618
502.322
502.869
503.318
503.715
504.094
504.474
504.871
505.294
505.751
506.24
506.752
507.276
507.8
508.313
508.821
509.339
509.895
510.531
511.291
512.23
513.413
514.874
516.607
518.544
520.635
522.804
524.949
527.024
529.106
531.449
534.558
539.136
545.874
500.63
501.618
502.324
502.876
503.331
503.735
504.122
504.514
504.926
505.368
505.848
506.366
506.908
507.457
508.002
508.531
509.046
509.559
510.093
510.678
511.361
512.219
513.316
514.69
516.357
518.292
520.442
522.695
524.916
527.025
529.115
531.457
534.568
539.161
545.898
500.63
501.619
502.329
502.887
503.347
503.758
504.153
504.556
504.982
505.445
505.953
506.503
507.079
507.66
508.232
508.784
509.319
509.847
510.387
510.964
511.618
512.409
513.418
514.717
516.357
518.291
520.446
522.714
524.972
527.127
529.244
531.596
534.714
539.304
545.97
500.63
501.62
502.332
502.892
503.358
503.774
504.177
504.59
505.032
505.516
506.052
506.633
507.242
507.855
508.457
509.04
509.605
510.162
510.729
511.331
512.01
512.82
513.816
515.06
516.601
518.482
520.649
522.964
525.237
527.378
529.483
531.845
534.98
539.533
546.067
500.629
501.618
502.331
502.893
503.363
503.784
504.193
504.616
505.07
505.575
506.139
506.754
507.397
508.039
508.67
509.283
509.88
510.474
511.085
511.743
512.484
513.35
514.39
515.66
517.21
519.067
521.187
523.433
525.634
527.719
529.796
532.148
535.273
539.77
546.162
500.629
501.617
502.33
502.895
503.365
503.788
504.204
504.636
505.104
505.629
506.219
506.866
507.542
508.215
508.867
509.501
510.122
510.746
511.398
512.115
512.932
513.89
515.03
516.392
518.004
519.873
521.95
524.111
526.216
528.222
530.241
532.548
535.62
540.021
546.257
500.628
501.616
502.331
502.897
503.368
503.794
504.213
504.649
505.128
505.67
506.286
506.963
507.673
508.374
509.042
509.681
510.304
510.931
511.594
512.327
513.175
514.188
515.411
516.867
518.555
520.46
522.516
524.612
526.641
528.592
530.58
532.859
535.888
540.212
546.32
500.628
501.616
502.326
502.888
503.356
503.782
504.202
504.644
505.13
505.681
506.314
507.03
507.782
508.524
509.224
509.876
510.491
511.097
511.731
512.433
513.25
514.235
515.434
516.876
518.579
520.499
522.561
524.654
526.682
528.637
530.626
532.906
535.932
540.234
546.319
500.627
501.615
502.325
502.882
503.347
503.77
504.188
504.627
505.111
505.667
506.314
507.054
507.862
508.666
509.418
510.1
510.726
511.324
511.931
512.591
513.356
514.285
515.438
516.839
518.492
520.379
522.433
524.539
526.599
528.58
530.584
532.871
535.906
540.223
546.32
500.628
501.616
502.325
502.876
503.334
503.751
504.164
504.598
505.076
505.624
506.27
507.032
507.882
508.763
509.596
510.344
511.01
511.624
512.223
512.853
513.567
514.426
515.495
516.847
518.489
520.372
522.425
524.538
526.596
528.581
530.588
532.873
535.904
540.237
546.337
500.63
501.621
502.327
502.873
503.326
503.737
504.142
504.567
505.033
505.567
506.201
506.963
507.845
508.794
509.729
510.575
511.322
511.996
512.63
513.267
513.963
514.777
515.773
517.013
518.554
520.397
522.44
524.548
526.605
528.585
530.588
532.886
535.952
540.297
546.367
500.633
501.627
502.33
502.871
503.315
503.718
504.114
504.526
504.975
505.486
506.092
506.831
507.716
508.719
509.757
510.731
511.596
512.368
513.083
513.778
514.51
515.341
516.334
517.548
519.023
520.756
522.688
524.699
526.685
528.635
530.652
532.984
536.071
540.406
546.414
500.636
501.632
502.334
502.872
503.312
503.706
504.093
504.493
504.924
505.411
505.983
506.678
507.528
508.534
509.649
510.76
511.78
512.695
513.523
514.308
515.107
515.985
517.008
518.228
519.677
521.343
523.166
525.055
526.941
528.833
530.828
533.157
536.242
540.539
546.461
500.639
501.637
502.337
502.873
503.312
503.703
504.081
504.466
504.879
505.339
505.874
506.515
507.302
508.258
509.364
510.55
511.723
512.823
513.831
514.755
515.652
516.589
517.636
518.846
520.248
521.829
523.537
525.308
527.101
528.936
530.907
533.242
536.332
540.596
546.476
500.64
501.638
502.338
502.873
503.312
503.703
504.079
504.462
504.865
505.304
505.798
506.379
507.083
507.947
508.982
510.168
511.426
512.676
513.851
514.96
516.024
517.076
518.18
519.398
520.76
522.265
523.877
525.553
527.273
529.059
531.002
533.314
536.384
540.623
546.48
500.639
501.639
502.341
502.877
503.314
503.703
504.079
504.461
504.864
505.301
505.788
506.346
506.993
507.752
508.67
509.766
511.002
512.312
513.629
514.882
516.071
517.262
518.47
519.732
521.089
522.552
524.104
525.723
527.4
529.164
531.094
533.39
536.433
540.642
546.482
500.644
501.652
502.36
502.9
503.338
503.727
504.099
504.476
504.872
505.304
505.79
506.345
506.989
507.733
508.586
509.561
510.678
511.933
513.266
514.613
515.946
517.24
518.529
519.85
521.22
522.662
524.176
525.757
527.409
529.16
531.089
533.402
536.457
540.66
546.489
500.647
501.663
502.377
502.921
503.364
503.756
504.132
504.512
504.91
505.341
505.821
506.367
506.999
507.733
508.581
509.537
510.592
511.739
512.98
514.313
515.696
517.08
518.469
519.857
521.267
522.717
524.219
525.78
527.413
529.159
531.091
533.408
536.463
540.663
546.495
500.656
501.685
502.406
502.951
503.394
503.787
504.164
504.547
504.948
505.383
505.866
506.415
507.048
507.782
508.627
509.584
510.631
511.759
512.967
514.251
515.604
517.007
518.441
519.885
521.34
522.812
524.314
525.862
527.475
529.192
531.111
533.433
536.506
540.717
546.525
500.664
501.706
502.435
502.986
503.431
503.824
504.198
504.578
504.98
505.414
505.896
506.445
507.08
507.818
508.671
509.638
510.701
511.835
513.026
514.286
515.62
517.016
518.445
519.898
521.382
522.883
524.4
525.949
527.557
529.274
531.194
533.526
536.612
540.813
546.567
500.671
501.722
502.454
503.007
503.456
503.856
504.238
504.619
505.011
505.436
505.916
506.459
507.08
507.803
508.647
509.624
510.718
511.895
513.132
514.422
515.759
517.131
518.547
520.017
521.519
523.038
524.572
526.13
527.736
529.441
531.348
533.669
536.747
540.918
546.608
500.679
501.741
502.478
503.032
503.483
503.884
504.267
504.649
505.043
505.462
505.925
506.45
507.052
507.745
508.55
509.496
510.595
511.818
513.119
514.471
515.866
517.286
518.739
520.233
521.755
523.29
524.835
526.4
528.01
529.713
531.604
533.9
536.938
541.047
546.652
500.683
501.751
502.492
503.049
503.503
503.907
504.291
504.674
505.069
505.489
505.945
506.446
507.004
507.643
508.38
509.239
510.258
511.452
512.797
514.262
515.772
517.259
518.734
520.238
521.779
523.344
524.92
526.51
528.135
529.843
531.735
534.018
537.031
541.103
546.661
500.689
501.763
502.507
503.068
503.525
503.93
504.314
504.697
505.091
505.507
505.958
506.452
506.997
507.593
508.255
509.003
509.872
510.907
512.144
513.58
515.163
516.827
518.489
520.107
521.707
523.303
524.896
526.496
528.126
529.838
531.729
534.01
537.017
541.082
546.65
500.694
501.778
502.529
503.097
503.558
503.965
504.35
504.733
505.127
505.542
505.99
506.479
507.011
507.59
508.218
508.892
509.634
510.493
511.514
512.75
514.22
515.878
517.642
519.429
521.197
522.929
524.627
526.304
527.989
529.731
531.629
533.903
536.908
540.993
546.613
500.703
501.799
502.558
503.13
503.594
504.003
504.39
504.774
505.168
505.583
506.03
506.516
507.046
507.619
508.229
508.876
509.56
510.291
511.125
512.121
513.354
514.848
516.558
518.406
520.311
522.207
524.056
525.851
527.617
529.411
531.341
533.634
536.668
540.824
546.552
500.714
501.828
502.596
503.173
503.64
504.05
504.437
504.82
505.212
505.624
506.067
506.552
507.082
507.655
508.263
508.899
509.557
510.249
510.989
511.823
512.834
514.092
515.616
517.382
519.327
521.356
523.376
525.337
527.232
529.107
531.073
533.377
536.436
540.668
546.5
500.728
501.863
502.641
503.223
503.692
504.103
504.489
504.87
505.259
505.668
506.107
506.585
507.11
507.682
508.296
508.939
509.6
510.273
510.964
511.713
512.578
513.631
514.933
516.521
518.399
520.484
522.644
524.776
526.826
528.806
530.823
533.14
536.222
540.535
546.463
500.745
501.907
502.702
503.293
503.767
504.18
504.567
504.948
505.337
505.744
506.179
506.652
507.169
507.731
508.336
508.981
509.652
510.339
511.033
511.746
512.534
513.466
514.599
515.991
517.685
519.681
521.884
524.147
526.346
528.437
530.517
532.871
536.005
540.41
546.427
500.767
501.965
502.781
503.384
503.866
504.284
504.673
505.056
505.447
505.858
506.296
506.767
507.276
507.825
508.415
509.047
509.717
510.415
511.129
511.858
512.629
513.501
514.567
515.874
517.468
519.36
521.515
523.81
526.081
528.239
530.364
532.751
535.92
540.363
546.416
500.794
502.036
502.885
503.508
504.001
504.427
504.824
505.214
505.614
506.033
506.482
506.96
507.468
508.004
508.572
509.176
509.82
510.504
511.222
511.971
512.77
513.649
514.659
515.898
517.459
519.345
521.502
523.793
526.049
528.191
530.306
532.692
535.869
540.333
546.407
500.826
502.12
503.001
503.646
504.154
504.592
505.002
505.407
505.823
506.262
506.73
507.223
507.734
508.259
508.804
509.376
509.983
510.633
511.325
512.066
512.875
513.773
514.798
516.021
517.519
519.355
521.499
523.792
526.05
528.172
530.263
532.639
535.817
540.286
546.386
500.864
502.219
503.138
503.804
504.326
504.779
505.206
505.633
506.076
506.546
507.044
507.556
508.074
508.594
509.124
509.673
510.251
510.863
511.516
512.23
513.017
513.892
514.897
516.099
517.58
519.396
521.519
523.807
526.056
528.168
530.257
532.632
535.815
540.29
546.385
500.906
502.326
503.285
503.972
504.508
504.976
505.422
505.873
506.35
506.857
507.387
507.92
508.447
508.972
509.503
510.051
510.627
511.237
511.887
512.591
513.36
514.213
515.192
516.359
517.793
519.55
521.608
523.84
526.066
528.177
530.266
532.646
535.832
540.295
546.394
500.951
502.436
503.429
504.134
504.683
505.165
505.632
506.112
506.624
507.168
507.723
508.269
508.799
509.325
509.863
510.423
511.017
511.652
512.336
513.074
513.874
514.754
515.756
516.94
518.374
520.102
522.092
524.212
526.304
528.334
530.409
532.81
536.005
540.438
546.453
500.991
502.532
503.555
504.277
504.838
505.334
505.821
506.331
506.878
507.451
508.025
508.577
509.103
509.623
510.156
510.718
511.321
511.981
512.715
513.518
514.382
515.322
516.373
517.592
519.036
520.734
522.641
524.644
526.631
528.59
530.638
533.044
536.239
540.61
546.509
501.025
502.614
503.665
504.401
504.974
505.484
505.991
506.529
507.11
507.713
508.304
508.859
509.381
509.887
510.401
510.941
511.535
512.218
512.999
513.869
514.814
515.832
516.946
518.199
519.635
521.274
523.079
524.962
526.845
528.741
530.766
533.172
536.355
540.674
546.524
501.054
502.685
503.761
504.515
505.101
505.625
506.15
506.717
507.333
507.964
508.568
509.122
509.628
510.109
510.59
511.094
511.657
512.325
513.123
514.047
515.073
516.182
517.385
518.706
520.167
521.774
523.499
525.29
527.1
528.944
530.933
533.314
536.467
540.74
546.54
501.076
502.736
503.835
504.606
505.204
505.739
506.281
506.87
507.511
508.165
508.78
509.333
509.827
510.281
510.717
511.169
511.683
512.308
513.082
514.018
515.081
516.251
517.521
518.899
520.396
522.008
523.706
525.449
527.219
529.045
531.027
533.398
536.533
540.776
546.545
501.092
502.776
503.895
504.684
505.294
505.839
506.392
506.997
507.659
508.332
508.961
509.517
510
510.427
510.823
511.224
511.669
512.202
512.885
513.767
514.853
516.101
517.457
518.876
520.383
521.994
523.69
525.433
527.202
529.027
531.011
533.384
536.522
540.768
546.54
501.104
502.808
503.95
504.757
505.38
505.937
506.501
507.121
507.801
508.493
509.136
509.703
510.191
510.61
510.982
511.339
511.712
512.147
512.691
513.402
514.324
515.468
516.821
518.356
519.999
521.702
523.443
525.198
526.96
528.771
530.751
533.139
536.306
540.599
546.466
501.116
502.843
504.002
504.827
505.465
506.032
506.608
507.243
507.943
508.653
509.316
509.901
510.402
510.83
511.204
511.544
511.879
512.247
512.702
513.295
514.045
514.984
516.148
517.53
519.102
520.813
522.603
524.427
526.276
528.172
530.203
532.617
535.848
540.301
546.374
501.13
502.88
504.063
504.908
505.562
506.143
506.736
507.392
508.118
508.856
509.535
510.124
510.627
511.059
511.439
511.785
512.12
512.476
512.891
513.404
514.07
514.932
515.995
517.277
518.764
520.438
522.259
524.166
526.103
528.049
530.091
532.508
535.771
540.284
546.385
501.145
502.923
504.128
504.988
505.655
506.252
506.864
507.545
508.303
509.077
509.781
510.371
510.858
511.272
511.638
511.975
512.307
512.664
513.083
513.597
514.243
515.043
516.051
517.291
518.763
520.435
522.263
524.183
526.122
528.061
530.098
532.519
535.797
540.322
546.409
501.159
502.968
504.194
505.067
505.745
506.356
506.988
507.694
508.488
509.313
510.068
510.679
511.151
511.526
511.847
512.143
512.441
512.77
513.159
513.639
514.239
515
515.966
517.179
518.647
520.329
522.156
524.053
525.957
527.873
529.908
532.341
535.641
540.203
546.352
501.179
503.028
504.274
505.151
505.838
506.467
507.122
507.856
508.697
509.598
510.441
511.117
511.601
511.942
512.204
512.431
512.66
512.919
513.238
513.651
514.189
514.858
515.689
516.732
518.042
519.638
521.468
523.437
525.462
527.488
529.568
532.004
535.338
540.023
546.305
501.217
503.124
504.37
505.23
505.916
506.558
507.222
507.969
508.852
509.861
510.865
511.675
512.241
512.591
512.812
512.971
513.112
513.27
513.478
513.778
514.225
514.864
515.686
516.721
518.018
519.6
521.437
523.434
525.467
527.488
529.561
532.008
535.365
540.061
546.344
501.267
503.227
504.466
505.305
505.979
506.612
507.274
508.018
508.904
509.957
511.1
512.175
512.95
513.41
513.663
513.806
513.911
514.023
514.172
514.391
514.721
515.217
515.95
516.963
518.282
519.898
521.744
523.699
525.659
527.62
529.723
532.275
535.769
540.513
546.577
501.323
503.325
504.535
505.346
506
506.603
507.22
507.903
508.734
509.792
511.061
512.355
513.433
514.195
514.657
514.908
515.062
515.213
515.42
515.726
516.175
516.809
517.671
518.785
520.147
521.71
523.395
525.139
526.915
528.756
530.807
533.373
536.814
541.253
546.841
501.353
503.378
504.584
505.384
506.019
506.589
507.133
507.712
508.398
509.271
510.413
511.789
513.18
514.367
515.268
515.877
516.27
516.579
516.906
517.325
517.893
518.646
519.604
520.764
522.095
523.553
525.085
526.651
528.259
529.986
531.977
534.474
537.727
541.816
547.003
501.377
503.414
504.618
505.419
506.047
506.599
507.113
507.612
508.142
508.793
509.649
510.767
512.16
513.644
514.981
516.051
516.886
517.549
518.127
518.725
519.42
520.258
521.261
522.419
523.701
525.061
526.458
527.888
529.391
531.039
532.956
535.341
538.377
542.17
547.092
501.396
503.442
504.657
505.468
506.1
506.642
507.133
507.604
508.076
508.567
509.131
509.876
510.917
512.233
513.76
515.346
516.676
517.639
518.49
519.301
520.139
521.062
522.092
523.227
524.448
525.729
527.063
528.451
529.906
531.489
533.325
535.611
538.531
542.217
547.087
501.406
503.464
504.704
505.54
506.186
506.73
507.213
507.663
508.101
508.547
509.009
509.499
510.051
510.826
511.934
513.357
515.023
516.733
518.163
519.234
520.145
521.094
522.126
523.249
524.457
525.736
527.069
528.454
529.909
531.491
533.322
535.595
538.51
542.192
547.056
501.412
503.487
504.766
505.642
506.313
506.872
507.363
507.816
508.247
508.666
509.074
509.476
509.89
510.343
510.876
511.618
512.665
514.031
515.661
517.47
519.186
520.675
521.974
523.163
524.384
525.656
526.959
528.322
529.766
531.338
533.14
535.359
538.224
541.937
546.945
501.414
503.521
504.853
505.775
506.478
507.056
507.562
508.025
508.466
508.892
509.3
509.683
510.038
510.373
510.712
511.094
511.572
512.234
513.187
514.496
516.118
517.921
519.765
521.543
523.152
524.632
526.075
527.539
529.062
530.683
532.495
534.713
537.644
541.534
546.803
501.437
503.604
504.997
505.964
506.694
507.292
507.816
508.297
508.755
509.199
509.626
510.025
510.389
510.714
511.008
511.288
511.58
511.922
512.382
513.06
514.052
515.412
517.11
519.016
520.971
522.878
524.701
526.439
528.131
529.842
531.686
533.909
536.912
541.038
546.643
501.474
503.723
505.182
506.19
506.944
507.562
508.107
508.612
509.097
509.569
510.022
510.445
510.825
511.157
511.445
511.703
511.939
512.175
512.46
512.865
513.43
514.252
515.441
517.027
518.924
520.982
523.058
525.066
527.015
528.955
530.959
533.266
536.376
540.751
546.592
501.525
503.872
505.399
506.442