/*--------------------------------*- C++ -*----------------------------------*\
  =========                 |
  \\      /  F ield         | OpenFOAM: The Open Source CFD Toolbox
   \\    /   O peration     | Website:  https://openfoam.org
    \\  /    A nd           | Version:  8
     \\/     M anipulation  |
\*---------------------------------------------------------------------------*/
FoamFile
{
    version     2.0;
    format      ascii;
    class       volVectorField;
    location    "1000";
    object      U;
}
// * * * * * * * * * * * * * * * * * * * * * * * * * * * * * * * * * * * * * //

dimensions      [0 1 -1 0 0 0 0];

internalField   nonuniform List<vector> 
78750
(
(2.02402e-05 -0.000244057 -0.0001233)
(0.000159979 -0.000611494 -0.000335296)
(0.000434061 -0.000892049 -0.000521143)
(0.000807188 -0.00111032 -0.000686636)
(0.00126072 -0.00128263 -0.000835434)
(0.0017812 -0.00142 -0.000969536)
(0.0023571 -0.00153065 -0.00109062)
(0.00297866 -0.00162062 -0.00119982)
(0.0036377 -0.00169444 -0.00129779)
(0.00432726 -0.00175564 -0.00138487)
(0.00504148 -0.00180741 -0.00146161)
(0.0057754 -0.00185274 -0.00152886)
(0.0065249 -0.00189439 -0.00158749)
(0.00728661 -0.00193485 -0.00163818)
(0.00805796 -0.00197663 -0.00168174)
(0.00883711 -0.00202232 -0.00171911)
(0.00962289 -0.00207483 -0.00175146)
(0.0104148 -0.00213784 -0.00178049)
(0.0112132 -0.00221679 -0.00180905)
(0.0120176 -0.00232138 -0.0018427)
(0.0128341 -0.00247184 -0.00189354)
(0.013658 -0.00262652 -0.00193994)
(0.0144935 -0.00278198 -0.00198009)
(0.015339 -0.00294273 -0.00201709)
(0.0161944 -0.00310577 -0.00205304)
(0.0170555 -0.0032523 -0.00208795)
(0.0178902 -0.00333658 -0.00211772)
(0.0186814 -0.00326091 -0.0021244)
(0.0193152 -0.00277561 -0.00212617)
(0.0195099 -0.00117808 -0.0021126)
(0.0193946 0.000972348 -0.00207178)
(0.017716 0.00753552 -0.00190912)
(0.0148255 0.014594 -0.00171303)
(0.00838894 0.0236296 -0.00121422)
(0.00216112 0.0195344 -0.000480202)
(1.35282e-05 -0.000721287 -0.000249554)
(0.000175253 -0.00190379 -0.000693577)
(0.000487148 -0.00287099 -0.00109013)
(0.000920673 -0.00366215 -0.0014455)
(0.00145361 -0.00430829 -0.00176484)
(0.00206908 -0.00483401 -0.00205241)
(0.00275198 -0.00525907 -0.00231181)
(0.00348895 -0.00559957 -0.002546)
(0.00426821 -0.00586882 -0.00275746)
(0.00507946 -0.00607805 -0.00294826)
(0.00591354 -0.00623586 -0.00311974)
(0.00676239 -0.00635031 -0.00327339)
(0.00761882 -0.00642885 -0.00341073)
(0.00847647 -0.00647827 -0.00353324)
(0.00932965 -0.00650477 -0.00364237)
(0.0101731 -0.0065141 -0.0037395)
(0.0110022 -0.00651129 -0.00382575)
(0.0118123 -0.0065003 -0.00390176)
(0.0125992 -0.00648287 -0.00396692)
(0.0133599 -0.0064546 -0.0040177)
(0.014086 -0.00639736 -0.00404366)
(0.0147683 -0.00635963 -0.00406961)
(0.0154162 -0.0063034 -0.00409902)
(0.0159978 -0.0062373 -0.0041343)
(0.0165131 -0.00611928 -0.00417653)
(0.0169542 -0.0058292 -0.00423258)
(0.0173004 -0.00506785 -0.00431573)
(0.0174021 -0.00398883 -0.00437843)
(0.0172392 -0.000392077 -0.00442198)
(0.0166782 0.00445309 -0.00439389)
(0.0154996 0.012227 -0.00425212)
(0.0130738 0.028653 -0.00377709)
(0.00932182 0.0509176 -0.00296612)
(0.00446166 0.066275 -0.00186031)
(0.000469162 0.0470074 -0.000661274)
(1.77872e-05 -0.00120382 -0.000306249)
(0.000196749 -0.0031792 -0.000835328)
(0.000533399 -0.00479058 -0.00129218)
(0.000992319 -0.00610017 -0.00168741)
(0.00154825 -0.00715719 -0.00202995)
(0.00218203 -0.00800087 -0.00232739)
(0.00287671 -0.00866276 -0.0025861)
(0.00361748 -0.00916884 -0.00281141)
(0.00439144 -0.00954058 -0.0030077)
(0.00518729 -0.00979601 -0.00317866)
(0.00599522 -0.00995045 -0.00332737)
(0.00680663 -0.0100171 -0.00345652)
(0.00761413 -0.0100076 -0.00356847)
(0.00841134 -0.00993186 -0.00366535)
(0.0091923 -0.00979778 -0.0037493)
(0.00995127 -0.00961205 -0.00382234)
(0.0106827 -0.00938011 -0.00388597)
(0.0113802 -0.00910756 -0.00394251)
(0.0120387 -0.00879957 -0.00399532)
(0.0126583 -0.00845485 -0.00404486)
(0.0132386 -0.00807418 -0.00409051)
(0.0137675 -0.00764416 -0.00413607)
(0.014226 -0.00709647 -0.00419237)
(0.0146457 -0.00632344 -0.00426351)
(0.0149221 -0.00557432 -0.0043224)
(0.0151083 -0.00447096 -0.00438951)
(0.0151098 -0.00232614 -0.00447856)
(0.0148246 0.00152856 -0.00457815)
(0.0143781 0.00593716 -0.00462976)
(0.0134129 0.0151697 -0.0046037)
(0.011633 0.0307197 -0.0044109)
(0.0088412 0.0541043 -0.00392944)
(0.00546258 0.0793531 -0.00309295)
(0.00213677 0.0897221 -0.00196459)
(9.04827e-05 0.0563994 -0.000703635)
(1.67396e-05 -0.00172371 -0.000334063)
(0.000195568 -0.00454467 -0.00090158)
(0.000533155 -0.00683678 -0.00138156)
(0.000992307 -0.00868997 -0.00178788)
(0.00154542 -0.0101756 -0.00213238)
(0.00217192 -0.0113508 -0.00242501)
(0.00285389 -0.0122611 -0.00267408)
(0.00357589 -0.0129437 -0.00288637)
(0.00432466 -0.0134289 -0.00306745)
(0.00508876 -0.0137418 -0.00322186)
(0.00585836 -0.013904 -0.00335345)
(0.00662438 -0.0139343 -0.00346547)
(0.00737915 -0.0138521 -0.00356083)
(0.00811717 -0.0136684 -0.00364197)
(0.00883916 -0.0133878 -0.00371373)
(0.00953834 -0.0130208 -0.00377351)
(0.0102057 -0.0125679 -0.00382191)
(0.0108391 -0.0120283 -0.00386621)
(0.0114665 -0.0114115 -0.00390709)
(0.011983 -0.0108501 -0.00394233)
(0.0125173 -0.0101206 -0.0039886)
(0.0129724 -0.00926203 -0.00404152)
(0.0133547 -0.00827957 -0.00410023)
(0.0136713 -0.00704093 -0.00417169)
(0.0138835 -0.00536164 -0.00426077)
(0.0139219 -0.00289211 -0.00437005)
(0.0137716 0.00103978 -0.00450161)
(0.0135162 0.00533642 -0.00460361)
(0.0128526 0.0137717 -0.00470859)
(0.0115747 0.027705 -0.00472993)
(0.00961497 0.0486225 -0.0045695)
(0.00699761 0.075717 -0.00410677)
(0.0040884 0.101205 -0.0032725)
(0.00149572 0.106285 -0.00211222)
(4.77352e-05 0.062492 -0.000769148)
(1.9992e-05 -0.00223029 -0.000351139)
(0.000212821 -0.00586981 -0.000938549)
(0.00057021 -0.00881233 -0.00142607)
(0.00104822 -0.0111794 -0.00183092)
(0.00161653 -0.0130653 -0.00216765)
(0.00225262 -0.0145436 -0.00244834)
(0.00293715 -0.0156728 -0.00268282)
(0.00365386 -0.0164998 -0.00287898)
(0.00438924 -0.0170627 -0.00304314)
(0.00513224 -0.0173925 -0.00318044)
(0.00587386 -0.0175142 -0.00329522)
(0.00659586 -0.0174493 -0.00339091)
(0.00733919 -0.0172064 -0.00347232)
(0.00800656 -0.0168895 -0.00352784)
(0.00869192 -0.0164586 -0.00357672)
(0.00934141 -0.0158935 -0.00362343)
(0.00995096 -0.015219 -0.00366603)
(0.0105291 -0.0144379 -0.00370685)
(0.0110684 -0.0135483 -0.00374881)
(0.0115571 -0.0125447 -0.00379473)
(0.0119856 -0.0114037 -0.00384733)
(0.0123485 -0.0100739 -0.00390944)
(0.0126316 -0.00846877 -0.0039854)
(0.0128125 -0.00643525 -0.00407924)
(0.0128483 -0.00370126 -0.0041933)
(0.0127287 0.000206249 -0.00433048)
(0.0125455 0.00432016 -0.00444864)
(0.012083 0.011828 -0.00460476)
(0.0111822 0.0237587 -0.00472008)
(0.0098171 0.0418742 -0.00474052)
(0.00793089 0.067104 -0.00457815)
(0.00561615 0.0968474 -0.00412326)
(0.00316469 0.121202 -0.00330265)
(0.00113895 0.120483 -0.0021997)
(1.23561e-05 0.0673633 -0.000807116)
(1.97279e-05 -0.00280772 -0.000330653)
(0.000224767 -0.00737769 -0.000882561)
(0.000602003 -0.011045 -0.00133637)
(0.00110029 -0.013974 -0.00170957)
(0.00168428 -0.0162876 -0.00201693)
(0.0023288 -0.0180813 -0.00227057)
(0.00301329 -0.0194304 -0.0024802)
(0.00372133 -0.0203958 -0.00265337)
(0.0044403 -0.0210273 -0.0027961)
(0.00516037 -0.0213659 -0.00291333)
(0.00586552 -0.021447 -0.00300906)
(0.00659293 -0.0212922 -0.00308878)
(0.00724636 -0.0209928 -0.00314332)
(0.0079401 -0.0204903 -0.00319209)
(0.00857359 -0.0198275 -0.00323462)
(0.00918043 -0.0190106 -0.00327272)
(0.00975127 -0.0180442 -0.0033095)
(0.0102799 -0.0169292 -0.00334803)
(0.0107603 -0.0156577 -0.00339139)
(0.0111852 -0.014209 -0.0034427)
(0.0115451 -0.0125416 -0.00350496)
(0.0118284 -0.0105819 -0.00358294)
(0.0120191 -0.00820302 -0.00368055)
(0.012104 -0.00518546 -0.00380164)
(0.0120232 -0.00116239 -0.00395104)
(0.0118772 0.00295098 -0.00408502)
(0.0115756 0.0092115 -0.00426188)
(0.0109516 0.019039 -0.00444104)
(0.0100015 0.0336959 -0.00457658)
(0.00864655 0.0547243 -0.00460907)
(0.00687073 0.0824068 -0.00445179)
(0.00478404 0.11316 -0.00400706)
(0.00267111 0.135903 -0.00321839)
(0.0009669 0.13105 -0.00215591)
(1.2076e-05 0.0708868 -0.000782089)
(2.58488e-05 -0.00347562 -0.000308406)
(0.000268647 -0.00909602 -0.00081937)
(0.000698739 -0.0135345 -0.00123428)
(0.00124664 -0.0170314 -0.00157362)
(0.00187108 -0.0197574 -0.00185269)
(0.00254495 -0.0218406 -0.00208307)
(0.0032476 -0.0233806 -0.00227341)
(0.00396393 -0.024456 -0.0024302)
(0.00468343 -0.02513 -0.00255864)
(0.00539094 -0.0254533 -0.00266303)
(0.00611601 -0.0254674 -0.00274887)
(0.00677567 -0.0252504 -0.00280806)
(0.00746962 -0.0247788 -0.00285929)
(0.00811035 -0.0240883 -0.00290265)
(0.00872775 -0.0231884 -0.00294044)
(0.0093102 -0.0220892 -0.00297586)
(0.00985119 -0.0207946 -0.00301178)
(0.0103441 -0.0193008 -0.00305101)
(0.0107811 -0.0175936 -0.00309619)
(0.0111542 -0.0156438 -0.00314978)
(0.0114483 -0.0133993 -0.00321417)
(0.011654 -0.0107593 -0.00330595)
(0.0117524 -0.00759515 -0.0034191)
(0.0117162 -0.00369097 -0.00355998)
(0.011587 0.00127125 -0.00373716)
(0.0113743 0.00628118 -0.0039104)
(0.0108761 0.0144656 -0.00413134)
(0.0101305 0.0264034 -0.00433596)
(0.00907871 0.0437723 -0.00449063)
(0.00768765 0.0679447 -0.0045318)
(0.00597646 0.0984271 -0.00437143)
(0.00407446 0.13026 -0.00391892)
(0.00224624 0.1511 -0.00313559)
(0.000815377 0.141496 -0.0020988)
(1.15028e-05 0.0744384 -0.000757397)
(3.16169e-05 -0.00434834 -0.0002664)
(0.000323265 -0.0112738 -0.000710731)
(0.00081958 -0.0165764 -0.00107103)
(0.0014271 -0.020661 -0.00136811)
(0.00209669 -0.0237867 -0.00161532)
(0.00280128 -0.0261346 -0.00182165)
(0.00352156 -0.0278359 -0.00199356)
(0.00424496 -0.0289909 -0.00213589)
(0.00496327 -0.0296777 -0.00225268)
(0.0056659 -0.0299577 -0.00234875)
(0.00637864 -0.0298715 -0.00242427)
(0.00702998 -0.0295165 -0.00247757)
(0.00769848 -0.0288505 -0.00252767)
(0.00831554 -0.0279099 -0.00257081)
(0.00890134 -0.0267098 -0.00260972)
(0.0094449 -0.0252578 -0.002647)
(0.00993848 -0.0235543 -0.00268495)
(0.0103742 -0.0215901 -0.00272558)
(0.0107428 -0.0193427 -0.00277087)
(0.0110341 -0.0167714 -0.00282309)
(0.011238 -0.0137761 -0.00289477)
(0.0113418 -0.010287 -0.00297387)
(0.0113414 -0.00613512 -0.00307659)
(0.0111955 -0.00110183 -0.00321106)
(0.0110168 0.00393345 -0.00335491)
(0.0106921 0.0112439 -0.00356457)
(0.0101389 0.0212132 -0.00378868)
(0.00933953 0.0352331 -0.00400894)
(0.00825681 0.0547263 -0.00418741)
(0.00688764 0.0806458 -0.00425528)
(0.00528748 0.112038 -0.00412002)
(0.00356388 0.143431 -0.00369373)
(0.00196424 0.161968 -0.00295726)
(0.00074028 0.149082 -0.00197529)
(2.53171e-05 0.0771114 -0.000698632)
(4.31965e-05 -0.00550991 -0.000231621)
(0.000420559 -0.0140558 -0.000610443)
(0.00102018 -0.0202814 -0.000914375)
(0.00171855 -0.024919 -0.00116564)
(0.00245447 -0.0283905 -0.00137844)
(0.00320648 -0.030947 -0.00155965)
(0.0039591 -0.0327571 -0.00171376)
(0.00470343 -0.0339419 -0.0018441)
(0.00542957 -0.0345908 -0.00195505)
(0.00615867 -0.0347707 -0.00204768)
(0.0068309 -0.0345644 -0.00211809)
(0.00751642 -0.0339754 -0.00218647)
(0.00814903 -0.0330408 -0.00224833)
(0.00874796 -0.031778 -0.00230595)
(0.00930184 -0.0302017 -0.00236116)
(0.00980309 -0.0283186 -0.0024152)
(0.010244 -0.0261264 -0.00246914)
(0.0106165 -0.0236119 -0.00252424)
(0.0109122 -0.0207473 -0.00258228)
(0.0111203 -0.0174856 -0.00264608)
(0.0112342 -0.0137869 -0.00271181)
(0.0112456 -0.00953347 -0.00278981)
(0.0111422 -0.00459669 -0.00288902)
(0.0109621 0.00117937 -0.00302307)
(0.0107259 0.00697776 -0.003184)
(0.0103085 0.015314 -0.00340227)
(0.00971024 0.0268243 -0.00363074)
(0.00886861 0.042767 -0.00386665)
(0.00775934 0.0644777 -0.00407448)
(0.00638773 0.09265 -0.00417842)
(0.00481461 0.125767 -0.0040717)
(0.0031849 0.157437 -0.00365956)
(0.00172242 0.174072 -0.00293533)
(0.000604918 0.157338 -0.00196001)
(-1.09349e-05 0.0799063 -0.000687638)
(5.06229e-05 -0.00706867 -0.000153504)
(0.000523505 -0.0177227 -0.000404051)
(0.0012275 -0.0249386 -0.000613595)
(0.00200905 -0.0300432 -0.000795107)
(0.00280617 -0.0337861 -0.000957162)
(0.00359607 -0.0364853 -0.00110217)
(0.00437116 -0.0383413 -0.00123133)
(0.00512619 -0.0394907 -0.00134619)
(0.00585515 -0.0400311 -0.00144979)
(0.00657634 -0.0400296 -0.00154301)
(0.00723768 -0.0395916 -0.00162279)
(0.00789331 -0.0386956 -0.0017055)
(0.00849069 -0.0373887 -0.00178648)
(0.00904158 -0.0356956 -0.00186629)
(0.00953517 -0.0336327 -0.00194464)
(0.00996372 -0.0312084 -0.00202041)
(0.0103199 -0.0284206 -0.00209207)
(0.0105971 -0.0252563 -0.00215811)
(0.0107866 -0.0216885 -0.00221755)
(0.0108872 -0.0176601 -0.00228354)
(0.0108912 -0.0131162 -0.002349)
(0.0108015 -0.00797197 -0.00242169)
(0.0106026 -0.00212525 -0.00251392)
(0.0103818 0.00376674 -0.0026308)
(0.0100627 0.0110079 -0.00279336)
(0.00956294 0.0208531 -0.00298199)
(0.00886609 0.0341833 -0.0031939)
(0.0079449 0.0521238 -0.00343504)
(0.00679067 0.0757337 -0.0036766)
(0.00543414 0.10529 -0.00383822)
(0.00395851 0.13872 -0.00379663)
(0.00251804 0.169027 -0.00344539)
(0.00131532 0.182925 -0.00279147)
(0.000466702 0.163253 -0.00187359)
(-1.63201e-06 0.0818748 -0.000647474)
(6.05279e-05 -0.00905292 -3.41618e-05)
(0.000630379 -0.0222525 -8.5843e-05)
(0.00144256 -0.0305068 -0.000161989)
(0.00230463 -0.0360131 -0.00025958)
(0.00316699 -0.0399409 -0.000361014)
(0.00399462 -0.0427058 -0.000463596)
(0.00479019 -0.04453 -0.000565345)
(0.00555052 -0.0455601 -0.000666811)
(0.00629239 -0.0458991 -0.000768221)
(0.00697434 -0.0456506 -0.000863604)
(0.0076447 -0.0448417 -0.000969486)
(0.00825357 -0.0435235 -0.00108095)
(0.00881215 -0.0417305 -0.00119771)
(0.00930981 -0.0394927 -0.00131834)
(0.00973902 -0.0368321 -0.00144037)
(0.0100929 -0.0337622 -0.00156067)
(0.0103652 -0.0302876 -0.00167588)
(0.0105506 -0.0264024 -0.00178287)
(0.010644 -0.0220904 -0.00187939)
(0.010646 -0.0173352 -0.00197172)
(0.0105573 -0.0120897 -0.00205764)
(0.010387 -0.00631082 -0.00214364)
(0.0101447 4.41623e-05 -0.00224216)
(0.00985824 0.00648125 -0.00235801)
(0.00944062 0.0148584 -0.00249234)
(0.00885131 0.0259587 -0.00261283)
(0.00807526 0.0407372 -0.00275043)
(0.00710921 0.0602616 -0.00293016)
(0.00596515 0.0854133 -0.00314974)
(0.00468692 0.116182 -0.00334832)
(0.00335405 0.1501 -0.00339728)
(0.0021458 0.179598 -0.00315614)
(0.00116454 0.191531 -0.00260438)
(0.000402965 0.169009 -0.00174685)
(-2.49145e-05 0.0837052 -0.00057337)
(6.91133e-05 -0.0114879 0.000187118)
(0.000710799 -0.0276584 0.0004766)
(0.00160358 -0.0371373 0.000601675)
(0.00250968 -0.0430211 0.000618846)
(0.00339451 -0.0470166 0.000596347)
(0.00422861 -0.049748 0.000548811)
(0.00501473 -0.051448 0.000482288)
(0.005759 -0.0522684 0.000398649)
(0.00647787 -0.052312 0.000298776)
(0.00713594 -0.0517053 0.000189398)
(0.00776998 -0.0504486 5.77518e-05)
(0.0083427 -0.0486105 -9.06092e-05)
(0.0088602 -0.0462349 -0.000253312)
(0.00931337 -0.0433584 -0.000426813)
(0.00969559 -0.0400099 -0.000606696)
(0.0100011 -0.0362112 -0.000788208)
(0.0102252 -0.0319755 -0.000966798)
(0.0103639 -0.027308 -0.00113868)
(0.0104179 -0.0222063 -0.00130146)
(0.0103814 -0.0166662 -0.00144062)
(0.0102648 -0.0106758 -0.0015833)
(0.0100708 -0.00422351 -0.0017233)
(0.00982788 0.00268575 -0.00187144)
(0.00950851 0.00998414 -0.00200936)
(0.0090018 0.0196614 -0.0021215)
(0.0082972 0.0322494 -0.00219469)
(0.00740411 0.0485592 -0.00225461)
(0.00635149 0.0695148 -0.00233279)
(0.00518748 0.0958052 -0.00245228)
(0.0039719 0.127095 -0.00259201)
(0.00277847 0.160444 -0.00265241)
(0.0017783 0.187967 -0.00249528)
(0.00101544 0.197664 -0.00208974)
(0.000403816 0.17345 -0.00139303)
(3.78668e-06 0.0853286 -0.000414911)
(7.53351e-05 -0.0143144 0.000522454)
(0.000754205 -0.0337735 0.00129541)
(0.00166028 -0.0444871 0.00167828)
(0.00253679 -0.0506655 0.00183286)
(0.00337103 -0.0546662 0.00190038)
(0.00414918 -0.0573201 0.00191718)
(0.00486986 -0.0588608 0.00189307)
(0.00556044 -0.0594404 0.00183305)
(0.00620036 -0.0591868 0.00174509)
(0.00682019 -0.0581613 0.00162127)
(0.0073905 -0.0564325 0.0014648)
(0.00791768 -0.0540564 0.00127849)
(0.00839404 -0.0510843 0.0010665)
(0.00881369 -0.0475607 0.000834308)
(0.00917127 -0.0435243 0.000588182)
(0.00946214 -0.0390069 0.000334666)
(0.00968283 -0.0340338 7.99323e-05)
(0.00983131 -0.0286237 -0.000170972)
(0.00990723 -0.0227895 -0.000414854)
(0.00991785 -0.0165404 -0.000650862)
(0.00985993 -0.00988624 -0.000869663)
(0.00973699 -0.00285057 -0.00109777)
(0.00955144 0.00442496 -0.00131029)
(0.00923182 0.0132238 -0.0015007)
(0.0087028 0.0244549 -0.00165151)
(0.00797585 0.0385161 -0.00176239)
(0.0070498 0.0560485 -0.00183547)
(0.00593428 0.0778472 -0.00187288)
(0.00470437 0.104583 -0.00188625)
(0.00348133 0.135981 -0.00188994)
(0.00238264 0.168973 -0.00185394)
(0.00156262 0.195206 -0.00169883)
(0.000959646 0.203444 -0.00141389)
(0.000424178 0.177826 -0.000920932)
(1.51929e-05 0.0870052 -0.000226825)
(7.19824e-05 -0.0173888 0.00100444)
(0.000701155 -0.0402406 0.00242467)
(0.0014989 -0.0521203 0.00312499)
(0.00223438 -0.0585253 0.00343806)
(0.00291522 -0.06251 0.00360443)
(0.00354286 -0.0650865 0.00369604)
(0.00411624 -0.0664841 0.00372691)
(0.00466431 -0.0668527 0.00370428)
(0.00517842 -0.0663246 0.00363545)
(0.0056786 -0.0649505 0.00351722)
(0.00614987 -0.0628068 0.00335201)
(0.0065951 -0.0599555 0.00314308)
(0.00700983 -0.0564531 0.00289502)
(0.00739037 -0.0523512 0.00261361)
(0.00773345 -0.0476966 0.00230546)
(0.0080366 -0.0425317 0.00197754)
(0.00829845 -0.0368944 0.00163669)
(0.00851945 -0.0308187 0.00128902)
(0.0087052 -0.0243373 0.00093917)
(0.00885216 -0.01749 0.000589399)
(0.00895092 -0.0102358 0.000237252)
(0.00896747 -0.00241047 -0.00010794)
(0.00887778 0.0059743 -0.00043189)
(0.00863408 0.0163217 -0.000752944)
(0.00819645 0.0289622 -0.00104157)
(0.00753323 0.0446268 -0.00128316)
(0.00661511 0.0641204 -0.00145883)
(0.00546003 0.08772 -0.00155127)
(0.00412518 0.115205 -0.0015477)
(0.00276466 0.145829 -0.00144859)
(0.00162581 0.176787 -0.00126985)
(0.00097122 0.200351 -0.00103571)
(0.000638936 0.207054 -0.000826243)
(0.00034177 0.181345 -0.000550978)
(3.35179e-05 0.0886045 -0.000126112)
(5.45251e-05 -0.0202927 0.00160116)
(0.000541673 -0.0462112 0.0037648)
(0.00112006 -0.0591058 0.00480963)
(0.00163549 -0.0657521 0.00529423)
(0.00209711 -0.0697748 0.00556197)
(0.00251619 -0.0723363 0.00573736)
(0.0028938 -0.0736821 0.00584018)
(0.00325856 -0.0739564 0.0058791)
(0.00361317 -0.0732813 0.00585966)
(0.00397012 -0.0717126 0.00578247)
(0.00432645 -0.0693278 0.00564793)
(0.00468517 -0.0661913 0.0054582)
(0.00504563 -0.0623644 0.00521657)
(0.00540733 -0.0579056 0.00492745)
(0.00577002 -0.0528707 0.00459623)
(0.00613409 -0.0473127 0.00422891)
(0.00650369 -0.0412821 0.00383171)
(0.00687862 -0.0348303 0.00341068)
(0.00724966 -0.0280018 0.00296473)
(0.00759534 -0.0206776 0.0024931)
(0.00788452 -0.0126428 0.00199428)
(0.00806997 -0.00379692 0.00147018)
(0.00808795 0.00576012 0.000959628)
(0.0079427 0.0174597 0.000447663)
(0.00762136 0.0320327 -5.60974e-05)
(0.00704372 0.0497899 -0.000513997)
(0.00616619 0.0712562 -0.000888163)
(0.00502823 0.0967269 -0.00113719)
(0.00369536 0.125522 -0.00122453)
(0.00231219 0.155849 -0.00113459)
(0.00116253 0.184338 -0.000907313)
(0.000569081 0.204277 -0.000640973)
(0.000381742 0.208897 -0.000477338)
(0.000240204 0.1834 -0.000320438)
(4.27384e-05 0.0897821 -6.59701e-05)
(2.98057e-05 -0.0227692 0.00220648)
(0.000359133 -0.0512892 0.00509161)
(0.000722161 -0.0651458 0.00646603)
(0.00104459 -0.0722022 0.00712596)
(0.00132417 -0.076391 0.00749636)
(0.00157563 -0.0790398 0.00775729)
(0.0018042 -0.0804723 0.00794221)
(0.00203588 -0.0808234 0.00806113)
(0.0022805 -0.0802001 0.00811855)
(0.00254874 -0.0786656 0.00811683)
(0.00284426 -0.0762906 0.00805469)
(0.00317159 -0.0731392 0.00793238)
(0.00353299 -0.0692739 0.00775077)
(0.00393026 -0.0647572 0.00751171)
(0.00436582 -0.0596512 0.00721829)
(0.00484305 -0.0540174 0.00687468)
(0.00535638 -0.0479237 0.00648256)
(0.00589582 -0.0413293 0.00603828)
(0.00643791 -0.0340971 0.0055353)
(0.00694667 -0.0261026 0.0049669)
(0.00738082 -0.0171427 0.00433228)
(0.0076869 -0.00694539 0.0036348)
(0.00778035 0.00471958 0.00289219)
(0.0076678 0.0176669 0.00217212)
(0.00735902 0.0341751 0.00137789)
(0.00678592 0.0542273 0.000620212)
(0.00590451 0.0780936 -3.10644e-05)
(0.00474721 0.105727 -0.000506698)
(0.00342314 0.135868 -0.000756335)
(0.00208339 0.165803 -0.000767964)
(0.000990946 0.191632 -0.000592157)
(0.000410781 0.207802 -0.000377901)
(0.000243802 0.210127 -0.000272201)
(0.000155785 0.184488 -0.000176163)
(4.79521e-05 0.0907418 -2.5606e-05)
(3.82058e-06 -0.0248562 0.00274661)
(0.00021462 -0.0556974 0.00626342)
(0.000438165 -0.070593 0.00794889)
(0.000646568 -0.0782163 0.00878823)
(0.000836446 -0.0826958 0.00926989)
(0.00101487 -0.0855622 0.00960589)
(0.00118922 -0.0872323 0.00986772)
(0.0013764 -0.087831 0.0100665)
(0.00159008 -0.087453 0.0102075)
(0.00184108 -0.0861639 0.0102948)
(0.00213546 -0.0840263 0.0103269)
(0.00247839 -0.0811003 0.0103029)
(0.00287339 -0.0774466 0.010222)
(0.00332478 -0.0731277 0.0100836)
(0.00383274 -0.0682091 0.00988848)
(0.00439272 -0.0627276 0.00963045)
(0.0049911 -0.0566356 0.00930165)
(0.00560901 -0.0498385 0.00889011)
(0.00621932 -0.0422029 0.0083873)
(0.00679293 -0.0334959 0.00778138)
(0.00728511 -0.0234134 0.00705661)
(0.00763487 -0.0116335 0.00620341)
(0.00777668 0.00199661 0.0052323)
(0.00769466 0.0169024 0.00423823)
(0.00736614 0.0357116 0.00316181)
(0.00674158 0.0582508 0.00207944)
(0.00582229 0.0845239 0.00109955)
(0.00465274 0.114055 0.000330275)
(0.00333357 0.145234 -0.000151006)
(0.00203545 0.174834 -0.000326878)
(0.00103448 0.198304 -0.00026938)
(0.000473403 0.211271 -0.00016004)
(0.00025811 0.211497 -0.000116111)
(0.000134161 0.185217 -5.80646e-05)
(4.89334e-05 0.0915515 2.12289e-05)
(-1.63813e-05 -0.0266905 0.00314972)
(0.000128474 -0.05978 0.00715468)
(0.000290818 -0.0758855 0.00912312)
(0.000465717 -0.0842618 0.0101539)
(0.00065532 -0.0892401 0.0107745)
(0.000856764 -0.0924472 0.0111986)
(0.00107041 -0.0944289 0.0115189)
(0.00130318 -0.0953641 0.0117714)
(0.00156291 -0.0953316 0.0119697)
(0.00185897 -0.0944017 0.0121231)
(0.00220038 -0.0926167 0.0122347)
(0.00259161 -0.090035 0.0123019)
(0.00303708 -0.0867135 0.0123214)
(0.00353391 -0.082716 0.0122868)
(0.00407718 -0.0780546 0.0121915)
(0.00465573 -0.0726842 0.0120267)
(0.00525508 -0.066552 0.0117786)
(0.00585876 -0.0595449 0.0114425)
(0.00645143 -0.0514756 0.0110059)
(0.0070048 -0.0420424 0.0104485)
(0.00747836 -0.0308279 0.00974291)
(0.0078193 -0.0174458 0.00886313)
(0.00795195 -0.00183871 0.00781162)
(0.00785827 0.0151444 0.00669217)
(0.0075087 0.0365915 0.00536075)
(0.00686364 0.0618737 0.00395631)
(0.00591808 0.0906593 0.00262292)
(0.0047298 0.1221 0.00150876)
(0.00340995 0.154181 0.000728738)
(0.00215761 0.183161 0.000319081)
(0.00121447 0.204363 0.000183999)
(0.000655817 0.21484 0.000144229)
(0.000370291 0.213351 0.000101435)
(0.000168844 0.186145 9.79206e-05)
(5.20006e-05 0.0923801 9.66571e-05)
(-3.08554e-05 -0.0283885 0.00336801)
(8.18512e-05 -0.0637598 0.00764524)
(0.000230407 -0.0812719 0.00982223)
(0.000423516 -0.0905955 0.0110298)
(0.000661092 -0.0962519 0.0118007)
(0.000938621 -0.099985 0.0123535)
(0.00124714 -0.102386 0.0127682)
(0.00158368 -0.103684 0.0130884)
(0.00194973 -0.104006 0.0133392)
(0.00234379 -0.103443 0.0135348)
(0.00277326 -0.102039 0.0136883)
(0.00323669 -0.0998336 0.013802)
(0.00373324 -0.0968468 0.0138777)
(0.00425729 -0.0930854 0.0139112)
(0.00479486 -0.0885515 0.0138773)
(0.00534287 -0.0831912 0.0137769)
(0.00589454 -0.0769549 0.0136053)
(0.00643898 -0.0697523 0.0133542)
(0.00696547 -0.0613107 0.0130121)
(0.00745179 -0.0512336 0.0125543)
(0.00786958 -0.0390168 0.0119413)
(0.00817743 -0.0241875 0.0111279)
(0.00830284 -0.00658533 0.0100839)
(0.00811891 0.0125194 0.0089358)
(0.00765792 0.0363236 0.00755856)
(0.00702152 0.0645662 0.00593111)
(0.00612926 0.0960102 0.00431816)
(0.00496637 0.129361 0.00290888)
(0.00364664 0.162265 0.00185489)
(0.00244003 0.190479 0.00121655)
(0.00152124 0.209739 0.000892445)
(0.000919071 0.218422 0.000705234)
(0.0005477 0.21564 0.000555442)
(0.000244065 0.187514 0.000427576)
(5.40685e-05 0.0933385 0.000238191)
(-3.76518e-05 -0.0299893 0.00337323)
(7.09867e-05 -0.0676616 0.0076357)
(0.000237423 -0.0867318 0.00987155)
(0.000475487 -0.097192 0.0111743)
(0.000784124 -0.103694 0.0120426)
(0.00115224 -0.108101 0.0126894)
(0.00156533 -0.111067 0.0131958)
(0.00201362 -0.112848 0.0135972)
(0.00249267 -0.113581 0.0139144)
(0.00298948 -0.11336 0.0141601)
(0.00350523 -0.112239 0.0143504)
(0.00402915 -0.110247 0.0144915)
(0.00455492 -0.107395 0.0145766)
(0.00507902 -0.10368 0.0146103)
(0.00559601 -0.0991226 0.0145941)
(0.00610519 -0.0937082 0.014528)
(0.00659976 -0.0873608 0.0144135)
(0.00707463 -0.079927 0.0142418)
(0.00751756 -0.0711391 0.0140017)
(0.00791948 -0.0605344 0.0136708)
(0.00826012 -0.0475003 0.0132095)
(0.00850525 -0.0314371 0.0125576)
(0.00859035 -0.011908 0.0116484)
(0.00834561 0.0110168 0.0104454)
(0.00787869 0.0355085 0.00910463)
(0.00723989 0.0660634 0.00749534)
(0.00634424 0.10018 0.00577486)
(0.00520069 0.135717 0.00417518)
(0.00391785 0.169623 0.00290171)
(0.00275154 0.197267 0.00205932)
(0.00183425 0.214936 0.00157029)
(0.00117303 0.222208 0.00126041)
(0.000710208 0.218353 0.00101821)
(0.00031409 0.189362 0.000772924)
(5.84946e-05 0.094479 0.000384513)
(-3.70504e-05 -0.0315494 0.00319246)
(9.66304e-05 -0.0715155 0.00717585)
(0.000310024 -0.0921892 0.00929228)
(0.000611216 -0.103858 0.0105586)
(0.000995444 -0.111276 0.0114158)
(0.00144727 -0.11641 0.0120568)
(0.00194635 -0.119974 0.0125598)
(0.00247767 -0.122248 0.0129603)
(0.00302795 -0.123372 0.0132801)
(0.00359024 -0.12343 0.0135374)
(0.0041443 -0.122504 0.0137348)
(0.00469755 -0.120608 0.0138864)
(0.00523525 -0.117786 0.0139961)
(0.00575841 -0.114067 0.0140733)
(0.00626447 -0.109457 0.0141194)
(0.00674789 -0.103921 0.0141338)
(0.0072034 -0.0973807 0.0141129)
(0.00762527 -0.0896896 0.0140534)
(0.00800674 -0.0805555 0.0139488)
(0.00833881 -0.0694815 0.0137844)
(0.00860177 -0.0557483 0.0135299)
(0.00877205 -0.0385619 0.0131243)
(0.00879214 -0.0173594 0.0124832)
(0.00858199 0.00774307 0.0115309)
(0.00817575 0.0342823 0.010389)
(0.00752572 0.0673132 0.00886466)
(0.0066299 0.103761 0.00712598)
(0.00549802 0.141087 0.00541278)
(0.00425255 0.175882 0.0039652)
(0.00310322 0.203225 0.00292869)
(0.00215952 0.21983 0.00227941)
(0.00142759 0.226112 0.0018494)
(0.000870737 0.221394 0.00150932)
(0.000383656 0.1915 0.00114021)
(6.5806e-05 0.0956465 0.000541829)
(-3.16286e-05 -0.0331433 0.00294752)
(0.000138606 -0.0754033 0.00656585)
(0.000405315 -0.0976444 0.0084819)
(0.000768121 -0.110478 0.00963188)
(0.00121714 -0.118771 0.0104094)
(0.00173603 -0.124582 0.0109807)
(0.00229925 -0.128682 0.0114192)
(0.00288639 -0.131369 0.0117613)
(0.00348205 -0.13279 0.0120326)
(0.00407572 -0.133052 0.0122514)
(0.00465173 -0.132261 0.0124301)
(0.00522004 -0.130443 0.0125862)
(0.00576463 -0.12765 0.0127229)
(0.00628666 -0.123908 0.0128427)
(0.00678045 -0.119218 0.0129452)
(0.00724231 -0.113553 0.0130302)
(0.0076694 -0.106831 0.0130977)
(0.00805707 -0.0988915 0.013145)
(0.00839791 -0.0894135 0.0131677)
(0.00867971 -0.0778742 0.0131585)
(0.00888765 -0.0634987 0.0130958)
(0.00899091 -0.0453744 0.0129287)
(0.00895769 -0.0227989 0.0125669)
(0.00873666 0.00409356 0.0119066)
(0.00837276 0.0323766 0.0110147)
(0.00774081 0.0675289 0.00970387)
(0.00680448 0.106391 0.00808333)
(0.00566303 0.145987 0.0063713)
(0.00449351 0.181726 0.00484682)
(0.00333787 0.20888 0.00369022)
(0.0023457 0.224707 0.00292318)
(0.00156645 0.230221 0.00240302)
(0.000947675 0.224789 0.00197963)
(0.000406294 0.194056 0.00149067)
(6.15914e-05 0.0969743 0.000684669)
(-2.70979e-05 -0.0347605 0.00271541)
(0.000168279 -0.0792619 0.0059825)
(0.000472547 -0.102989 0.00769143)
(0.000879384 -0.116914 0.00871044)
(0.00137602 -0.12603 0.0093924)
(0.00194366 -0.132466 0.00988196)
(0.00255359 -0.137038 0.0102455)
(0.00317967 -0.140061 0.0105255)
(0.00380502 -0.141712 0.0107481)
(0.00442265 -0.142122 0.0109328)
(0.00501343 -0.14142 0.0110885)
(0.0055896 -0.13964 0.0112336)
(0.00613312 -0.136835 0.0113716)
(0.00664552 -0.133034 0.0115048)
(0.00712208 -0.128243 0.0116344)
(0.00755965 -0.122441 0.0117601)
(0.0079546 -0.115549 0.0118825)
(0.00830191 -0.107375 0.0120019)
(0.00859478 -0.0975854 0.0121193)
(0.00882603 -0.0856239 0.0122338)
(0.00898291 -0.0706572 0.0123328)
(0.00903409 -0.0516713 0.0123778)
(0.00894744 -0.0278984 0.0122821)
(0.00869636 0.000508301 0.0119203)
(0.00830044 0.0303838 0.0112968)
(0.00766412 0.0679999 0.0102268)
(0.00680737 0.109267 0.00876977)
(0.00574034 0.150344 0.00712219)
(0.00452972 0.186946 0.0055597)
(0.00336952 0.214053 0.00431995)
(0.00237616 0.229305 0.00346006)
(0.00157755 0.234185 0.00286643)
(0.000929838 0.228046 0.00237672)
(0.000376158 0.196397 0.00179136)
(4.96929e-05 0.0980944 0.000807185)
(-2.25826e-05 -0.036338 0.00248343)
(0.000192747 -0.0829768 0.00539211)
(0.00052765 -0.108104 0.00688187)
(0.000970664 -0.123059 0.0077558)
(0.00150774 -0.132952 0.00832837)
(0.00211499 -0.139971 0.00873005)
(0.00275992 -0.144952 0.00902254)
(0.0034154 -0.148246 0.00924395)
(0.00406306 -0.150069 0.00942041)
(0.00469776 -0.150578 0.00957085)
(0.00529901 -0.149915 0.00970277)
(0.00587869 -0.148129 0.00983247)
(0.00641854 -0.14528 0.00996457)
(0.00692185 -0.141398 0.010102)
(0.00738382 -0.13649 0.010247)
(0.00780087 -0.130531 0.0103997)
(0.00816732 -0.123431 0.010561)
(0.00848017 -0.115002 0.0107329)
(0.0087353 -0.104902 0.0109209)
(0.00892357 -0.092535 0.01113)
(0.00903699 -0.077016 0.0113551)
(0.00906507 -0.0573085 0.0115656)
(0.00898098 -0.0325877 0.0116824)
(0.00872242 -0.00307698 0.0115752)
(0.00826562 0.0281164 0.0112069)
(0.0076159 0.0676998 0.0104055)
(0.00678918 0.111151 0.00920084)
(0.00573801 0.154281 0.00768624)
(0.00454921 0.191832 0.00615211)
(0.00340377 0.218916 0.00487061)
(0.00241788 0.233692 0.00394946)
(0.0016081 0.23803 0.00329326)
(0.000937331 0.231217 0.00273577)
(0.000366118 0.198571 0.00205572)
(4.40299e-05 0.0990276 0.000917594)